0.025000
3.18238
3.48148
3.80520
4.16223
4.67287
5.23706
5.90087
6.67901
7.59052
8.70533
9.67797
10.84149
11.76058
12.66795
13.61993
0.050000
3.03251
3.39909
3.73278
4.09217
4.59773
5.16215
5.82971
6.61678
7.56971
8.73739
9.60992
10.77292
11.72586
12.63073
13.58465
0.075000
2.91490
3.37636
3.73145
4.09340
4.59416
5.15704
5.82700
6.62322
7.62338
8.80543
9.61676
10.76770
11.75437
12.65808
13.61450
0.100000
2.79325
3.34917
3.73055
4.09906
4.59381
5.15469
5.82538
6.62945
7.67012
8.84859
9.62382
10.76108
11.77570
12.67919
13.63836
0.125000
2.56548
3.21376
3.62601
3.99792
4.48676
5.04369
5.71260
6.52278
7.59206
8.75743
9.51639
10.64345
11.67626
12.58058
13.54243
0.150000
2.32358
3.05583
3.50127
3.87774
4.35644
4.90789
5.57416
6.38821
7.47347
8.61376
9.38929
10.49702
11.54248
12.44820
13.41250
0.175000
2.10877
2.90262
3.38115
3.76201
4.23020
4.77630
5.43702
6.25309
7.34583
8.46391
9.25933
10.34899
11.40453
12.31275
13.27950
0.200000
1.99970
2.84704
3.35701
3.74135
4.20004
4.74008
5.39501
6.21070
7.30421
8.40506
9.21850
10.29236
11.35697
12.26892
13.23859
0.225000
1.95198
2.83447
3.37510
3.76517
4.21387
4.74491
5.39282
6.20577
7.29563
8.38203
9.21093
10.27105
11.34369
12.26050
13.23341
0.250000
1.94095
2.85485
3.42733
3.82407
4.26228
4.78305
5.42231
6.23112
7.31367
8.38678
9.22870
10.27693
11.35719
12.27994
13.25643
0.275000
1.94737
2.88915
3.49032
3.89522
4.32246
4.83312
5.46187
6.26337
7.33623
8.39699
9.25018
10.28774
11.37547
12.30529
13.28570
0.300000
1.91378
2.88389
3.51978
3.93345
4.34713
4.84519
5.46245
6.25459
7.31450
8.36330
9.22553
10.25348
11.34788
12.28572
13.26979
0.325000
1.89100
2.88142
3.54914
3.97224
4.37348
4.85921
5.46255
6.24315
7.28754
8.32435
9.19365
10.21309
11.31376
12.26015
13.24788
0.350000
1.90674
2.91221
3.61066
4.04615
4.43597
4.90786
5.49574
6.26343
7.29084
8.31491
9.19066
10.20250
11.30924
12.26542
13.25725
0.375000
1.92325
2.94127
3.67220
4.12332
4.50152
4.95824
5.53014
6.28233
7.29213
8.30287
9.18333
10.18888
11.30168
12.26838
13.26466
0.400000
1.91375
2.94373
3.70746
4.17513
4.54350
4.98415
5.53887
6.27389
7.26353
8.26033
9.14404
10.14374
11.26213
12.23984
13.24038
0.425000
1.87455
2.91432
3.71086
4.19741
4.55655
4.97923
5.51552
6.23198
7.19987
8.18101
9.06686
10.06124
11.18434
12.17338
13.17816
0.450000
1.82636
2.88153
3.71147
4.21613
4.56707
4.97185
5.48918
6.18465
7.13002
8.09475
8.98116
9.97066
11.09800
12.09879
13.10792
0.475000
1.80771
2.86912
3.73059
4.25614
4.59965
4.98675
5.48382
6.15740
7.07922
8.02642
8.91318
9.89817
11.02953
12.04229
13.05622
0.500000
1.79268
2.86041
3.75160
4.29971
4.63649
5.00473
5.48122
6.13211
7.02928
7.95872
8.84426
9.82510
10.96040
11.98537
13.00451
0.525000
1.78620
2.85005
3.76388
4.33543
4.66616
5.01593
5.47106
6.09880
6.97019
7.88109
8.76434
9.74161
10.88022
11.91770
12.94195
0.550000
1.78106
2.84971
3.78857
4.38272
4.70860
5.03922
5.47216
6.07653
6.92146
7.81301
8.69310
9.66732
10.80907
11.85907
12.88869
0.575000
1.80160
2.87296
3.83382
4.45044
4.77272
5.08408
5.49501
6.07476
6.89300
7.76522
8.64119
9.61267
10.75747
11.82013
12.85557
0.600000
1.86503
2.93189
3.91016
4.55040
4.86880
5.16183
5.55077
6.10590
6.89694
7.74978
8.62107
9.59029
10.73818
11.81384
12.85504
0.625000
1.94917
3.01439
4.01016
4.67494
4.99199
5.26632
5.63284
6.16349
6.92687
7.76000
8.62606
9.59358
10.74461
11.83355
12.88057
0.650000
2.02530
3.10230
4.11743
4.80300
5.12026
5.37710
5.72129
6.22640
6.96223
7.77504
8.63564
9.60174
10.75591
11.85808
12.91114
0.675000
2.09485
3.17665
4.20563
4.91538
5.23354
5.47292
5.79406
6.27416
6.98208
7.77434
8.62894
9.59377
10.75086
11.86649
12.92532
0.700000
2.13975
3.23226
4.27772
5.01014
5.32988
5.55188
5.85025
6.30535
6.98486
7.75678
8.60472
9.56876
10.72853
11.85774
12.92225
0.725000
2.18761
3.29172
4.35289
5.10742
5.42948
5.63475
5.91081
6.34039
6.99190
7.74302
8.58450
9.54754
10.71054
11.85326
12.92373
0.750000
2.25355
3.36465
4.44195
5.21892
5.54321
5.73227
5.98626
6.39055
7.01479
7.74486
8.57971
9.54219
10.70865
11.86475
12.94110
0.775000
2.31284
3.43959
4.53068
5.32949
5.65684
5.83005
6.06222
6.44200
7.03862
7.74786
8.57601
9.53837
10.70798
11.87758
12.95940
0.800000
2.37155
3.51013
4.61393
5.43401
5.76621
5.92413
6.13486
6.49057
7.05994
7.74867
8.56958
9.53212
10.70514
11.88802
12.97519
0.825000
2.45503
3.60096
4.71746
5.55898
5.89680
6.04005
6.23066
6.56239
7.10445
7.77341
8.58762
9.55030
10.72720
11.92309
13.01557
0.850000
2.57204
3.72685
4.85581
5.71837
6.06454
6.19451
6.36464
6.67312
7.18909
7.83824
8.64649
9.60971
10.79081
11.99991
13.09790
0.875000
2.69990
3.87177
5.01305
5.89733
6.25257
6.37105
6.52095
6.80635
7.29711
7.92733
8.72970
9.69420
10.87976
12.10228
13.20560
0.900000
2.82306
4.01179
5.16680
6.07533
6.43950
6.54629
6.67756
6.94030
7.40619
8.01748
8.81476
9.78078
10.97140
12.20714
13.31588
0.925000
2.92738
4.13584
5.30664
6.23502
6.61122
6.70752
6.82031
7.06131
7.50250
8.09563
8.88777
9.85557
11.05147
12.30046
13.41434
0.950000
3.01003
4.24162
5.42877
6.38005
6.76834
6.85550
6.94954
7.16940
7.58645
8.16205
8.94941
9.91914
11.12044
12.38243
13.50121
0.975000
3.09135
4.34173
5.54242
6.51774
6.91930
6.99673
7.07400
7.27334
7.66659
8.22514
9.00813
9.98034
11.18706
12.46160
13.58511
1.000000
3.16923
4.43999
5.65343
6.65207
7.06876
7.13809
7.19897
7.37829
7.74903
8.29142
9.07019
10.04513
11.25766
12.54423
13.67217
1.025000
3.24290
4.53415
5.76293
6.78566
7.21833
7.27944
7.32517
7.48560
7.83431
8.36129
9.13655
10.11450
11.33307
12.63131
13.76314
1.050000
3.31810
4.62753
5.86999
6.91538
7.36467
7.41939
7.44986
7.59271
7.92094
8.43264
9.20525
10.18634
11.41121
12.72051
13.85607
1.075000
3.38324
4.71455
5.97039
7.03580
7.50375
7.55317
7.56921
7.69445
8.00280
8.50081
9.27089
10.25557
11.48704
12.80675
13.94556
1.100000
3.43397
4.78557
6.05559
7.14160
7.62757
7.67282
7.67528
7.78418
8.07328
8.55814
9.32635
10.31497
11.55315
12.88270
14.02448
1.125000
3.46452
4.83641
6.12297
7.22964
7.73310
7.77480
7.76546
7.85787
8.12860
8.60132
9.36829
10.36079
11.60589
12.94456
14.08916
1.150000
3.48659
4.87403
6.17413
7.30179
7.82419
7.86231
7.84039
7.91843
8.17207
8.63309
9.39881
10.39579
11.64791
12.99543
14.14248
1.175000
3.50485
4.90868
6.22048
7.36733
7.90803
7.94445
7.91123
7.97475
8.21215
8.66214
9.42756
10.42920
11.68843
13.04379
14.19305
1.200000
3.53105
4.94622
6.27150
7.43734
7.99500
8.02968
7.98635
8.03638
8.25809
8.69871
9.46414
10.47061
11.73694
13.09959
14.25069
1.225000
3.56407
4.98789
6.32375
7.50834
8.08306
8.11687
8.06392
8.10163
8.30930
8.74075
9.50674
10.51873
11.79227
13.16125
14.31406
1.250000
3.59270
5.02631
6.37242
7.57404
8.16603
8.19930
8.13758
8.16354
8.35769
8.78143
9.54877
10.56627
11.84737
13.22181
14.37570
1.275000
3.61353
5.05918
6.41504
7.63116
8.24034
8.27317
8.20371
8.21855
8.40024
8.81750
9.58655
10.61004
11.89845
13.27755
14.43217
1.300000
3.62149
5.08386
6.45188
7.68061
8.30549
8.33810
8.26175
8.26667
8.43742
8.84822
9.61964
10.64948
11.94530
13.32806
14.48304
1.325000
3.62924
5.10024
6.47583
7.71891
8.35984
8.39243
8.30899
8.30439
8.46497
8.87067
9.64456
10.68085
11.98396
13.36961
14.52448
1.350000
3.62439
5.10110
6.48626
7.74123
8.39538
8.42983
8.33973
8.32675
8.47720
8.87888
9.65553
10.69832
12.00872
13.39605
14.55039
1.375000
3.59790
5.08419
6.47764
7.74303
8.41077
8.44570
8.35026
8.32903
8.47091
8.86881
9.64889
10.69799
12.01531
13.40340
14.55679
1.400000
3.56665
5.05209
6.45022
7.72532
8.40732
8.44311
8.34160
8.31376
8.44738
8.84201
9.62545
10.68095
12.00499
13.39289
14.54503
1.425000
3.52758
5.01218
6.41455
7.69926
8.39284
8.42919
8.32372
8.28891
8.41512
8.80746
9.59414
10.65641
11.98662
13.37362
14.52415
1.450000
3.49603
4.97917
6.38505
7.67837
8.38281
8.41911
8.31008
8.26948
8.38853
8.77967
9.57014
10.63881
11.97528
13.36037
14.50961
1.475000
3.48193
4.96272
6.37081
7.67139
8.38675
8.42380
8.31136
8.26505
8.37900
8.76907
9.56353
10.63904
11.98136
13.36419
14.51200
1.500000
3.48829
4.96436
6.37455
7.68349
8.40721
8.44554
8.32996
8.27895
8.38813
8.77805
9.57707
10.65925
12.00748
13.38728
14.53402
1.525000
3.50578
4.98318
6.39476
7.70820
8.44152
8.48121
8.36326
8.30921
8.41367
8.80443
9.60738
10.69673
12.05040
13.42664
14.57240
1.550000
3.53854
5.01106
6.42268
7.74332
8.48619
8.52643
8.40683
8.34987
8.45054
8.84210
9.64953
10.74586
12.10457
13.47703
14.62217
1.575000
3.56881
5.04147
6.45618
7.78120
8.53401
8.57697
8.45588
8.39601
8.49373
8.88618
9.69826
10.80074
12.16463
13.53267
14.67778
1.600000
3.60543
5.07300
6.48639
7.81753
8.58129
8.62698
8.50512
8.44227
8.53789
8.93169
9.74757
10.85645
12.22486
13.58826
14.73382
1.625000
3.63866
5.10006
6.51069
7.84889
8.62373
8.67302
8.55051
8.48528
8.57900
8.97397
9.79378
10.90877
12.28112
13.63970
14.78627
1.650000
3.66066
5.12165
6.53071
7.87351
8.66239
8.71512
8.59212
8.52515
8.61741
9.01381
9.83681
10.95765
12.33348
13.68711
14.83503
1.675000
3.68276
5.14142
6.54739
7.89551
8.69734
8.75516
8.63205
8.56351
8.65470
9.05228
9.87829
11.00478
12.38357
13.73170
14.88179
1.700000
3.70263
5.15886
6.56402
7.91724
8.73148
8.79536
8.67166
8.60234
8.69274
9.09143
9.92031
11.05200
12.43378
13.77610
14.92861
1.725000
3.71868
5.17629
6.57977
7.93740
8.76698
8.83743
8.71342
8.64289
8.73281
9.13328
9.96433
11.10109
12.48540
13.82181
14.97692
1.750000
3.73304
5.19435
6.59629
7.95635
8.80235
8.88011
8.75628
8.68539
8.77471
9.17676
10.01017
11.15155
12.53800
13.86855
15.02646
1.775000
3.75655
5.21307
6.61098
7.97666
8.83860
8.92423
8.80107
8.72896
8.81889
9.22280
10.05789
11.20425
12.59254
13.91705
15.07819
1.800000
3.77714
5.23645
6.63162
8.00115
8.87898
8.97407
8.85086
8.77870
8.86920
9.27545
10.11205
11.26292
12.65299
13.97126
15.13583
1.825000
3.80983
5.26509
6.65807
8.03187
8.92768
9.03243
8.90926
8.83673
8.92841
9.33714
10.17498
11.33036
12.72180
14.03361
15.20169
1.850000
3.84126
5.30260
6.69318
8.06970
8.98422
9.09839
8.97612
8.90377
8.99635
9.40760
10.24680
11.40657
12.79904
14.10439
15.27573
1.875000
3.88143
5.34307
6.73264
8.11309
9.04497
9.17033
9.04877
8.97636
9.07016
9.48405
10.32480
11.48881
12.88227
14.18072
15.35536
1.900000
3.91909
5.38414
6.77274
8.15712
9.10710
9.24494
9.12319
9.05078
9.14587
9.56243
10.40491
11.57300
12.96738
14.25888
15.43648
1.925000
3.95417
5.42356
6.81201
8.19922
9.16852
9.31882
9.19777
9.12480
9.22173
9.64117
10.48511
11.65734
13.05196
14.33674
15.51716
1.950000
3.98479
5.45993
6.84896
8.23918
9.22780
9.39180
9.27186
9.19761
9.29591
9.71864
10.56371
11.74035
13.13514
14.41289
15.59573
1.975000
4.00793
5.49300
6.88336
8.27551
9.28420
9.46312
9.34329
9.26854
9.36734
9.79351
10.63979
11.82074
13.21559
14.48575
15.67085
2.000000
4.02803
5.51802
6.91098
8.30798
9.33472
9.53018
9.41087
9.33468
9.43434
9.86311
10.71095
11.89586
13.29064
14.55317
15.74010
2.025000
4.04233
5.53612
6.93306
8.33358
9.37867
9.59248
9.47408
9.39533
9.49558
9.92669
10.77573
11.96498
13.35918
14.61403
15.80241
2.050000
4.04752
5.55191
6.94952
8.35410
9.41887
9.64994
9.53237
9.45194
9.55141
9.98458
10.83497
12.02839
13.42181
14.66906
15.85828
2.075000
4.05545
5.56338
6.96412
8.37257
9.45668
9.70762
9.59011
9.50679
9.60550
10.04022
10.89137
12.08929
13.48171
14.72114
15.91075
2.100000
4.06070
5.57397
6.97817
8.39093
9.49448
9.76612
9.64949
9.56229
9.65894
10.09451
10.94673
12.14859
13.54012
14.77146
15.96102
2.125000
4.06192
5.58407
6.99405
8.41060
9.53407
9.82766
9.71158
9.61982
9.71368
10.14944
11.00219
12.20813
13.59823
14.82152
16.01035
2.150000
4.06630
5.59467
7.00784
8.43079
9.57405
9.89026
9.77559
9.67817
9.76808
10.20302
11.05600
12.26601
13.65433
14.86932
16.05705
2.175000
4.06456
5.60353
7.02287
8.45089
9.61358
9.95350
9.84032
9.73683
9.82134
10.25425
11.10732
12.32126
13.70753
14.91420
16.09986
2.200000
4.06873
5.61143
7.03545
8.47159
9.65282
10.01829
9.90646
9.79611
9.87412
10.30366
11.15624
12.37402
13.75796
14.95615
16.13902
2.225000
4.07238
5.62110
7.04995
8.49179
9.69382
10.08517
9.97548
9.85745
9.92745
10.35280
11.20375
12.42532
13.80676
14.99635
16.17544
2.250000
4.07485
5.63258
7.06910
8.51638
9.73776
10.15672
10.05009
9.92355
9.98354
10.40352
11.25271
12.47764
13.85623
15.03672
16.21121
2.275000
4.08554
5.64641
7.09123
8.54684
9.78529
10.23309
10.12963
9.99404
10.04312
10.45594
11.30258
12.53104
13.90613
15.07743
16.24632
2.300000
4.09751
5.66540
7.11579
8.57665
9.83660
10.31431
10.21375
10.06886
10.10557
10.50966
11.35328
12.58476
13.95611
15.11773
16.27991
2.325000
4.11473
5.68496
7.13887
8.60863
9.88830
10.39678
10.30065
10.14587
10.16877
10.56216
11.40215
12.63640
14.00359
15.15515
16.30966
2.350000
4.12618
5.70085
7.16199
8.63941
9.93950
10.47918
10.38792
10.22395
10.23121
10.61219
11.44763
12.68422
14.04680
15.18811
16.33383
2.375000
4.14501
5.71747
7.18057
8.66699
9.98631
10.56132
10.47693
10.30142
10.29240
10.65936
11.48909
12.72782
14.08512
15.21599
16.35177
2.400000
4.15760
5.72991
7.19863
8.69322
10.03207
10.64298
10.56615
10.37962
10.35280
10.70371
11.52637
12.76721
14.11872
15.23875
16.36357
2.425000
4.15862
5.74142
7.21493
8.71670
10.07611
10.72505
10.65718
10.45925
10.41321
10.74565
11.56070
12.80313
14.14818
15.25712
16.37003
2.450000
4.16668
5.75267
7.22873
8.73890
10.11932
10.80669
10.74961
10.54028
10.47405
10.78644
11.59217
12.83582
14.17383
15.27150
16.37144
2.475000
4.17051
5.75878
7.24133
8.75999
10.16053
10.88781
10.84386
10.62313
10.53533
10.82541
11.62077
12.86508
14.19534
15.28190
16.36788
2.500000
4.17759
5.76624
7.25069
8.77688
10.19895
10.96685
10.93700
10.70521
10.59458
10.86101
11.64472
12.88931
14.21127
15.28629
16.35752
2.525000
4.17363
5.76788
7.25712
8.78982
10.23301
11.04263
11.02726
10.78595
10.65169
10.89243
11.66290
12.90729
14.22078
15.28404
16.33967
2.550000
4.16512
5.76709
7.25923
8.80039
10.26372
11.11489
11.11684
10.86518
10.70713
10.92044
11.67626
12.91984
14.22430
15.27587
16.31497
2.575000
4.15741
5.76153
7.25957
8.81062
10.29295
11.18562
11.20593
10.94507
10.76250
10.94666
11.68669
12.92903
14.22394
15.26351
16.28549
2.600000
4.15026
5.75928
7.26068
8.81879
10.32009
11.25582
11.29626
11.02664
10.81927
10.97276
11.69550
12.93601
14.22082
15.24852
16.25252
2.625000
4.14474
5.75753
7.26494
8.82874
10.34984
11.32679
11.38999
11.11224
10.88027
11.00156
11.70531
12.94342
14.21782
15.23365
16.21900
2.650000
4.13791
5.75894
7.27282
8.84262
10.38109
11.39944
11.48713
11.20280
10.94580
11.03325
11.71700
12.95190
14.21531
15.21914
16.18526
2.675000
4.13117
5.76098
7.28234
8.85774
10.41522
11.47421
11.58740
11.29681
11.01544
11.06841
11.73018
12.96111
14.21304
15.20519
16.15154
2.700000
4.13830
5.76593
7.29216
8.87843
10.45121
11.55054
11.69039
11.39641
11.09032
11.10760
11.74660
12.97205
14.21259
15.19299
16.11937
2.725000
4.14391
5.77792
7.30972
8.90410
10.49284
11.63180
11.80033
11.50350
11.17342
11.15414
11.76881
12.98847
14.21688
15.18594
16.09196
2.750000
4.15398
5.79813
7.33769
8.93719
10.54234
11.72138
11.91992
11.62118
11.26843
11.21205
11.80040
13.01360
14.22984
15.18753
16.07300
2.775000
4.17882
5.83043
7.37661
8.98238
10.60510
11.82117
12.05258
11.75379
11.37882
11.28455
11.84591
13.05129
14.25530
15.20195
16.06662
2.800000
4.22086
5.87531
7.42788
9.04115
10.67974
11.93385
12.19905
11.90211
11.50600
11.37363
11.90639
13.10323
14.29467
15.23051
16.07433
2.825000
4.27197
5.93192
7.48940
9.11131
10.76419
12.05582
12.35621
12.06364
11.64787
11.47688
11.97976
13.16749
14.34574
15.27101
16.09385
2.850000
4.32588
5.99337
7.55796
9.18560
10.85326
12.18296
12.51955
12.23391
11.79906
11.58968
12.06207
13.23920
14.40427
15.31911
16.12091
2.875000
4.38107
6.05684
7.62893
9.26176
10.94265
12.31026
12.68503
12.40743
11.95519
11.70776
12.14857
13.31430
14.46591
15.37058
16.15110
2.900000
4.43302
6.11807
7.69511
9.33628
11.02925
12.43383
12.84890
12.58140
12.11339
11.82828
12.23627
13.38972
14.52772
15.42222
16.18152
2.925000
4.47208
6.17357
7.75990
9.40505
11.11116
12.55173
13.00861
12.75342
12.27134
11.94882
12.32358
13.46367
14.58799
15.47241
16.21052
2.950000
4.52226
6.22697
7.81764
9.47234
11.19073
12.66427
13.16461
12.92396
12.42946
12.07070
12.41162
13.53764
14.64774
15.52239
16.23928
2.975000
4.56143
6.27906
7.87621
9.53601
11.26617
12.77376
13.31826
13.09328
12.58873
12.19453
12.50156
13.61266
14.70855
15.57353
16.26932
3.000000
4.60026
6.32984
7.93353
9.59915
11.34075
12.88001
13.47052
13.26310
12.74984
12.32160
12.59497
13.69038
14.77150
15.62726
16.30173
3.025000
4.63571
6.37803
7.98946
9.66009
11.41403
12.98312
13.62039
13.43237
12.91246
12.45175
12.69118
13.77058
14.83675
15.68336
16.33657
3.050000
4.67028
6.42707
8.04560
9.72004
11.48543
13.08497
13.76734
13.60105
13.07631
12.58466
12.79093
13.85352
14.90490
15.74243
16.37454
3.075000
4.70427
6.47267
8.09879
9.78063
11.55342
13.18231
13.91087
13.76795
13.24026
12.71918
12.89324
13.93852
14.97472
15.80329
16.41468
3.100000
4.74302
6.51599
8.14817
9.83717
11.61769
13.27299
14.04943
13.93108
13.40264
12.85403
12.99628
14.02448
15.04528
15.86503
16.45578
3.125000
4.76049
6.55436
8.19714
9.88738
11.67728
13.35863
14.18143
14.09006
13.56232
12.98818
13.09982
14.11053
15.11570
15.92691
16.49743
3.150000
4.78487
6.58945
8.24052
9.93575
11.73244
13.43842
14.30796
14.24466
13.71931
13.12165
13.20389
14.19738
15.18659
15.98960
16.54010
3.175000
4.80506
6.62025
8.27724
9.97968
11.78285
13.51204
14.42768
14.39458
13.87242
13.25356
13.30790
14.28384
15.25737
16.05211
16.58312
3.200000
4.82068
6.64790
8.31028
10.01804
11.82907
13.57955
14.54078
14.53898
14.02193
13.38378
13.41204
14.37071
15.32831
16.11494
16.62692
3.225000
4.83718
6.67107
8.34070
10.05285
11.87058
13.64147
14.64834
14.67776
14.16808
13.51240
13.51617
14.45787
15.39966
16.17873
16.67194
3.250000
4.84129
6.68999
8.36863
10.08333
11.90643
13.69672
14.74849
14.81078
14.30894
13.63844
13.61968
14.54482
15.47080
16.24240
16.71768
3.275000
4.85267
6.70353
8.38798
10.10954
11.93708
13.74582
14.84124
14.93749
14.44514
13.76130
13.72220
14.63130
15.54159
16.30583
16.76400
3.300000
4.85031
6.71144
8.40433
10.13016
11.96250
13.78883
14.92692
15.05723
14.57581
13.88102
13.82332
14.71709
15.61185
16.36914
16.81073
3.325000
4.84402
6.71811
8.41715
10.14520
11.98376
13.82634
15.00604
15.17141
14.70122
13.99781
13.92362
14.80268
15.68219
16.43277
16.85879
3.350000
4.84427
6.72266
8.42512
10.15722
11.99955
13.85882
15.07917
15.27911
14.82196
14.11148
14.02325
14.88825
15.75270
16.49690
16.90823
3.375000
4.84157
6.72378
8.43035
10.16781
12.01394
13.88816
15.14738
15.38218
14.93900
14.22348
14.12397
14.97509
15.82494
16.56317
16.96081
3.400000
4.83632
6.72428
8.43421
10.17561
12.02723
13.91518
15.21199
15.48153
15.05274
14.33460
14.22585
15.06425
15.89996
16.63211
17.01707
3.425000
4.83102
6.72268
8.43855
10.18388
12.03820
13.94021
15.27403
15.57777
15.16349
14.44515
14.32957
15.15618
15.97792
16.70458
17.07777
3.450000
4.82737
6.72226
8.44271
10.19061
12.05013
13.96573
15.33399
15.67158
15.27194
14.55539
14.43559
15.25126
16.05968
16.78087
17.14330
3.475000
4.82823
6.72392
8.44672
10.19851
12.06248
13.99142
15.39278
15.76276
15.37884
14.66530
14.54442
15.35003
16.14555
16.86116
17.21396
3.500000
4.82425
6.72480
8.45199
10.20650
12.07464
14.01639
15.44933
15.85140
15.48255
14.77412
14.65482
15.45139
16.23424
16.94491
17.28875
3.525000
4.82238
6.72538
8.45559
10.21496
12.08625
14.04083
15.50390
15.93601
15.58261
14.88095
14.76580
15.55434
16.32510
17.03079
17.36650
3.550000
4.81891
6.72427
8.45772
10.21934
12.09436
14.06176
15.55358
16.01487
15.67628
14.98349
14.87509
15.65662
16.41573
17.11640
17.44507
3.575000
4.81433
6.71867
8.45334
10.22092
12.09990
14.07953
15.59805
16.08637
15.76253
15.07981
14.98094
15.75691
16.50451
17.20027
17.52231
3.600000
4.80217
6.71048
8.44619
10.21669
12.09989
14.09259
15.63521
16.14913
15.83948
15.16810
15.08199
15.85269
16.58923
17.28021
17.59637
3.625000
4.78679
6.69547
8.43212
10.20573
12.09480
14.09957
15.66502
16.20126
15.90538
15.24713
15.17569
15.94232
16.66841
17.35438
17.66546
3.650000
4.76457
6.67437
8.41279
10.18855
12.08416
14.10102
15.68788
16.24421
15.96046
15.31720
15.26275
16.02599
16.74177
17.42296
17.72918
3.675000
4.73627
6.64776
8.38874
10.16745
12.06701
14.09807
15.70323
16.27745
16.00503
15.37770
15.34270
16.10319
16.80890
17.48497
17.78699
3.700000
4.70049
6.61654
8.36043
10.14291
12.04808
14.09082
15.71276
16.30164
16.03980
15.43017
15.41610
16.17461
16.87025
17.54132
17.83941
3.725000
4.66790
6.58316
8.32928
10.11474
12.02648
14.08221
15.71819
16.31916
16.06623
15.47520
15.48446
16.24119
16.92720
17.59293
17.88747
3.750000
4.63288
6.54712
8.29581
10.08609
12.00394
14.07260
15.72013
16.33039
16.08510
15.51384
15.54786
16.30336
16.97983
17.64013
17.93147
3.775000
4.59435
6.51201
8.26385
10.05732
11.98209
14.06345
15.72053
16.33698
16.09823
15.54793
15.60780
16.36222
17.02936
17.68395
17.97210
3.800000
4.56128
6.47636
8.23037
10.02812
11.96098
14.05523
15.71917
16.33822
16.10572
15.57679
15.66404
16.41710
17.07478
17.72367
18.00878
3.825000
4.52866
6.44151
8.19804
10.00068
11.94151
14.04969
15.71812
16.33676
16.10884
15.60214
15.71739
16.46913
17.11734
17.76029
18.04228
3.850000
4.48916
6.40685
8.16801
9.97440
11.92321
14.04546
15.71597
16.33201
16.10711
15.62360
15.76751
16.51781
17.15623
17.79277
18.07156
3.875000
4.45735
6.37213
8.13580
9.94910
11.90798
14.04344
15.71420
16.32408
16.10114
15.64161
15.81460
16.56248
17.19162
17.82131
18.09694
3.900000
4.42830
6.33965
8.10771
9.92520
11.89433
14.04476
15.71329
16.31442
16.09192
15.65680
15.85909
16.60362
17.22367
17.84619
18.11838
3.925000
4.40087
6.30995
8.07991
9.90366
11.88380
14.04885
15.71289
16.30262
16.07921
15.66946
15.90079
16.64064
17.25222
17.86701
18.13531
3.950000
4.37726
6.28032
8.05067
9.88406
11.87545
14.05581
15.71313
16.28856
16.06383
15.67925
15.93898
16.67369
17.27640
17.88310
18.14737
3.975000
4.35323
6.25076
8.02486
9.86565
11.86888
14.06566
15.71434
16.27239
16.04574
15.68686
15.97415
16.70226
17.29626
17.89458
18.15445
4.000000
4.32943
6.22307
8.00101
9.84850
11.86488
14.07881
15.71676
16.25529
16.02549
15.69254
16.00656
16.72702
17.31226
17.90181
18.15705
4.025000
4.30789
6.19661
7.97745
9.83491
11.86481
14.09574
15.72113
16.23755
16.00411
15.69717
16.03631
16.74791
17.32453
17.90505
18.15514
4.050000
4.29486
6.17491
7.95631
9.82096
11.86744
14.11642
15.72762
16.22115
15.98322
15.70165
16.06474
16.76638
17.33424
17.90542
18.14979
4.075000
4.27377
6.15561
7.93874
9.81063
11.87569
14.14315
15.73842
16.20699
15.96382
15.70769
16.09262
16.78352
17.34295
17.90407
18.14243
4.100000
4.27355
6.14267
7.92539
9.80756
11.88921
14.17608
15.75399
16.19567
15.94720
15.71628
16.12109
16.80019
17.35119
17.90195
18.13368
4.125000
4.26924
6.13264
7.92004
9.81176
11.91053
14.21630
15.77564
16.18852
15.93463
15.72821
16.15125
16.81745
17.35982
17.90018
18.12451
4.150000
4.26865
6.13246
7.92077
9.82013
11.93857
14.26387
15.80261
16.18611
15.92599
15.74310
16.18283
16.83489
17.36879
17.89841
18.11471
4.175000
4.28370
6.13761
7.92583
9.83613
11.97426
14.31940
15.83557
16.18772
15.92163
15.76197
16.21626
16.85316
17.37867
17.89709
18.10482
4.200000
4.29833
6.14693
7.93754
9.85874
12.01729
14.38234
15.87386
16.19410
15.92223
15.78435
16.25096
16.87244
17.38952
17.89655
18.09488
4.225000
4.31978
6.16309
7.95510
9.88788
12.06689
14.45150
15.91755
16.20544
15.92679
15.81016
16.28745
16.89263
17.40129
17.89664
18.08480
4.250000
4.34574
6.18301
7.97847
9.92438
12.12415
14.52788
15.96701
16.22162
15.93605
15.83991
16.32567
16.91383
17.41436
17.89765
18.07513
4.275000
4.37035
6.20987
8.00831
9.96544
12.18855
14.61201
16.02226
16.24276
15.95026
15.87399
16.36630
16.93653
17.42920
17.90028
18.06618
4.300000
4.40301
6.24173
8.04365
10.01247
12.26040
14.70245
16.08208
16.26847
15.96926
15.91138
16.40837
16.96036
17.44532
17.90384
18.05742
4.325000
4.42803
6.27632
8.08585
10.06494
12.33821
14.79788
16.14568
16.29767
15.99176
15.95139
16.45171
16.98448
17.46207
17.90803
18.04848
4.350000
4.47755
6.31799
8.12870
10.12241
12.42011
14.89888
16.21297
16.33002
16.01746
15.99368
16.49541
17.00898
17.47939
17.91243
18.03890
4.375000
4.51554
6.36111
8.17551
10.18314
12.50635
15.00316
16.28241
16.36479
16.04574
16.03686
16.53861
17.03292
17.49627
17.91627
18.02810
4.400000
4.56204
6.40391
8.22430
10.24644
12.59484
15.11007
16.35270
16.40025
16.07486
16.08043
16.58002
17.05560
17.51182
17.91848
18.01501
4.425000
4.60709
6.45023
8.27318
10.31102
12.68644
15.21743
16.42279
16.43579
16.10432
16.12295
16.61866
17.07628
17.52525
17.91868
17.99887
4.450000
4.65220
6.49601
8.32142
10.37556
12.77852
15.32395
16.49137
16.46981
16.13237
16.16327
16.65367
17.09360
17.53551
17.91541
17.97864
4.475000
4.68623
6.53815
8.37165
10.43954
12.87062
15.43041
16.55791
16.50255
16.15925
16.20135
16.68466
17.10793
17.54277
17.90885
17.95455
4.500000
4.71795
6.58048
8.42099
10.50347
12.96240
15.53598
16.62124
16.53272
16.18369
16.23646
16.71179
17.11847
17.54630
17.89873
17.92604
4.525000
4.75376
6.62073
8.47038
10.56950
13.05482
15.63984
16.68288
16.56134
16.20731
16.26931
16.73532
17.12649
17.54714
17.88593
17.89408
4.550000
4.80179
6.66491
8.51440
10.62776
13.14148
15.73996
16.74213
16.58789
16.22924
16.29989
16.75518
17.13160
17.54525
17.87018
17.85879
4.575000
4.84715
6.70856
8.55892
10.68514
13.22728
15.83786
16.79823
16.61246
16.24978
16.32784
16.77164
17.13370
17.54048
17.85154
17.81985
4.600000
4.88425
6.74912
8.60220
10.74405
13.31335
15.93386
16.85195
16.63541
16.26884
16.35361
16.78503
17.13345
17.53333
17.83047
17.77809
4.625000
4.92010
6.78936
8.64727
10.80237
13.39836
16.02772
16.90204
16.65624
16.28616
16.37665
16.79488
17.13064
17.52328
17.80675
17.73322
4.650000
4.95386
6.82868
8.69112
10.86207
13.48313
16.11923
16.94962
16.67448
16.30179
16.39726
16.80155
17.12530
17.51126
17.78066
17.68568
4.675000
4.98880
6.86941
8.73610
10.92174
13.56798
16.20975
16.99407
16.69136
16.31648
16.41618
16.80582
17.11848
17.49734
17.75292
17.63619
4.700000
5.01994
6.90962
8.78366
10.98333
13.65538
16.30005
17.03693
16.70868
16.33150
16.43449
16.80957
17.11159
17.48348
17.72529
17.58672
4.725000
5.05757
6.95461
8.83520
11.04809
13.74515
16.38987
17.07994
16.72704
16.34859
16.45389
16.81376
17.10566
17.47058
17.69872
17.53821
4.750000
5.09871
7.00227
8.89019
11.11822
13.83715
16.48102
17.12386
16.74731
16.36792
16.47467
16.81907
17.10196
17.45950
17.67423
17.49170
4.775000
5.14254
7.05113
8.94860
11.19382
13.93463
16.57355
17.16909
16.77034
16.39069
16.49785
16.82688
17.10119
17.45117
17.65272
17.44815
4.800000
5.18376
7.10770
9.01480
11.27354
14.03523
16.66939
17.21681
16.79712
16.41744
16.52448
16.83829
17.10417
17.44667
17.63517
17.40835
4.825000
5.22536
7.16701
9.08423
11.35695
14.14042
16.76596
17.26500
16.82656
16.44743
16.55325
16.85164
17.10980
17.44437
17.62011
17.37116
4.850000
5.27928
7.23091
9.15676
11.44407
14.24711
16.86258
17.31340
16.85757
16.47870
16.58328
16.86634
17.11682
17.44344
17.60645
17.33573
4.875000
5.33286
7.29339
9.22954
11.53267
14.35365
16.95743
17.36061
16.88859
16.51094
16.61287
16.88115
17.12407
17.44273
17.59330
17.30088
4.900000
5.38501
7.35634
9.30639
11.62247
14.45846
17.05102
17.40553
16.91864
16.54248
16.64143
16.89502
17.13084
17.44106
17.57934
17.26536
4.925000
5.42836
7.41908
9.38141
11.71174
14.56206
17.13985
17.44753
16.94761
16.57269
16.66800
16.90707
17.13594
17.43750
17.56383
17.22842
4.950000
5.47475
7.48115
9.45689
11.80123
14.66446
17.22554
17.48651
16.97563
16.60204
16.69283
16.91750
17.13955
17.43238
17.54690
17.19028
4.975000
5.52201
7.54348
9.53119
11.88911
14.76530
17.30798
17.52293
17.00141
16.63005
16.71579
16.92616
17.14138
17.42519
17.52807
17.15058
5.000000
5.56973
7.60715
9.60580
11.97797
14.86505
17.38787
17.55698
17.02643
16.65750
16.73789
16.93373
17.14261
17.41689
17.50839
17.11022
0.025000
3.18238
3.48148
3.80520
4.16223
4.67287
5.23706
5.90087
6.67901
7.59052
8.70533
9.67797
10.84149
11.76058
12.66795
13.61993
0.050000
3.03251
3.39909
3.73278
4.09217
4.59773
5.16215
5.82971
6.61678
7.56971
8.73739
9.60992
10.77292
11.72586
12.63073
13.58465
0.075000
2.91490
3.37636
3.73145
4.09340
4.59416
5.15704
5.82700
6.62322
7.62338
8.80543
9.61676
10.76770
11.75437
12.65808
13.61450
0.100000
2.79325
3.34917
3.73055
4.09906
4.59381
5.15469
5.82538
6.62945
7.67012
8.84859
9.62382
10.76108
11.77570
12.67919
13.63836
0.125000
2.56548
3.21376
3.62601
3.99792
4.48676
5.04369
5.71260
6.52278
7.59206
8.75743
9.51639
10.64345
11.67626
12.58058
13.54243
0.150000
2.32358
3.05583
3.50127
3.87774
4.35644
4.90789
5.57416
6.38821
7.47347
8.61376
9.38929
10.49702
11.54248
12.44820
13.41250
0.175000
2.10877
2.90262
3.38115
3.76201
4.23020
4.77630
5.43702
6.25309
7.34583
8.46391
9.25933
10.34899
11.40453
12.31275
13.27950
0.200000
1.99970
2.84704
3.35701
3.74135
4.20004
4.74008
5.39501
6.21070
7.30421
8.40506
9.21850
10.29236
11.35697
12.26892
13.23859
0.225000
1.95198
2.83447
3.37510
3.76517
4.21387
4.74491
5.39282
6.20577
7.29563
8.38203
9.21093
10.27105
11.34369
12.26050
13.23341
0.250000
1.94095
2.85485
3.42733
3.82407
4.26228
4.78305
5.42231
6.23112
7.31367
8.38678
9.22870
10.27693
11.35719
12.27994
13.25643
0.275000
1.94737
2.88915
3.49032
3.89522
4.32246
4.83312
5.46187
6.26337
7.33623
8.39699
9.25018
10.28774
11.37547
12.30529
13.28570
0.300000
1.91378
2.88389
3.51978
3.93345
4.34713
4.84519
5.46245
6.25459
7.31450
8.36330
9.22553
10.25348
11.34788
12.28572
13.26979
0.325000
1.89100
2.88142
3.54914
3.97224
4.37348
4.85921
5.46255
6.24315
7.28754
8.32435
9.19365
10.21309
11.31376
12.26015
13.24788
0.350000
1.90674
2.91221
3.61066
4.04615
4.43597
4.90786
5.49574
6.26343
7.29084
8.31491
9.19066
10.20250
11.30924
12.26542
13.25725
0.375000
1.92325
2.94127
3.67220
4.12332
4.50152
4.95824
5.53014
6.28233
7.29213
8.30287
9.18333
10.18888
11.30168
12.26838
13.26466
0.400000
1.91375
2.94373
3.70746
4.17513
4.54350
4.98415
5.53887
6.27389
7.26353
8.26033
9.14404
10.14374
11.26213
12.23984
13.24038
0.425000
1.87455
2.91432
3.71086
4.19741
4.55655
4.97923
5.51552
6.23198
7.19987
8.18101
9.06686
10.06124
11.18434
12.17338
13.17816
0.450000
1.82636
2.88153
3.71147
4.21613
4.56707
4.97185
5.48918
6.18465
7.13002
8.09475
8.98116
9.97066
11.09800
12.09879
13.10792
0.475000
1.80771
2.86912
3.73059
4.25614
4.59965
4.98675
5.48382
6.15740
7.07922
8.02642
8.91318
9.89817
11.02953
12.04229
13.05622
0.500000
1.79268
2.86041
3.75160
4.29971