Triton                     1  1 trit  ( 39.892,-102.670) (  26,  28) ( 40.009,-102.667) 1311.3 meters
     0.025000    1311.33325   1327.53296   1347.04578   1370.55420   1398.93152   1433.08167   1474.39282   1524.22778   1584.51355   1657.41907   1745.71216   1852.70068   1982.52734   2140.50732   2333.32227
     0.050000    1311.33325   1327.52710   1347.03784   1370.54578   1398.92310   1433.07678   1474.39319   1524.23499   1584.53198   1657.45154   1745.75916   1852.75525   1982.58569   2140.56934   2333.38574
     0.075000    1311.33325   1327.52478   1347.03735   1370.54944   1398.93274   1433.09631   1474.42639   1524.28613   1584.60571   1657.55444   1745.89441   1852.92261   1982.78809   2140.81519   2333.68433
     0.100000    1311.33325   1327.51831   1347.02722   1370.53772   1398.91919   1433.08423   1474.41626   1524.27942   1584.60522   1657.56201   1745.90857   1852.93994   1982.80444   2140.83057   2333.69653
     0.125000    1311.33325   1327.51318   1347.01953   1370.52917   1398.91113   1433.07947   1474.41626   1524.28577   1584.62097   1657.59058   1745.94934   1852.99097   1982.86438   2140.90186   2333.77979
     0.150000    1311.33325   1327.50525   1347.00610   1370.51086   1398.88782   1433.05237   1474.38586   1524.25183   1584.58423   1657.55188   1745.90552   1852.93713   1982.79504   2140.81372   2333.66724
     0.175000    1311.33325   1327.50049   1346.99939   1370.50391   1398.88062   1433.04761   1474.38452   1524.25574   1584.59546   1657.57312   1745.93738   1852.97913   1982.84668   2140.87769   2333.74414
     0.200000    1311.33325   1327.49426   1346.98950   1370.49109   1398.86523   1433.03162   1474.36780   1524.23840   1584.57849   1657.55908   1745.92407   1852.96448   1982.82898   2140.85571   2333.71460
     0.225000    1311.33325   1327.49048   1346.98474   1370.48682   1398.86267   1433.03149   1474.37244   1524.24890   1584.59814   1657.59070   1745.96838   1853.02319   1982.90320   2140.94873   2333.83008
     0.250000    1311.33325   1327.48450   1346.97546   1370.47546   1398.84961   1433.01721   1474.35767   1524.23425   1584.58484   1657.57971   1745.95911   1853.01526   1982.89661   2140.94312   2333.82300
     0.275000    1311.33325   1327.48132   1346.97095   1370.47144   1398.84680   1433.01709   1474.36145   1524.24292   1584.60071   1657.60547   1745.99646   1853.06555   1982.96338   2141.02881   2333.93091
     0.300000    1311.33325   1327.47583   1346.96240   1370.46057   1398.83301   1433.00110   1474.34412   1524.22437   1584.58154   1657.58691   1745.97839   1853.04773   1982.94580   2141.01172   2333.91187
     0.325000    1311.33325   1327.47205   1346.95667   1370.45483   1398.82751   1432.99707   1474.34192   1524.22534   1584.58667   1657.59900   1745.99866   1853.07971   1982.99158   2141.07397   2333.99316
     0.350000    1311.33325   1327.46997   1346.95349   1370.45264   1398.82690   1432.99915   1474.34766   1524.23669   1584.60474   1657.62683   1746.03955   1853.13672   1983.06970   2141.17725   2334.12598
     0.375000    1311.33325   1327.46826   1346.95068   1370.45154   1398.82776   1433.00293   1474.35632   1524.25110   1584.62744   1657.66028   1746.08667   1853.20276   1983.16064   2141.29712   2334.28076
     0.400000    1311.33325   1327.46509   1346.94458   1370.44458   1398.82068   1432.99585   1474.34985   1524.24524   1584.62329   1657.66003   1746.09143   1853.21667   1983.18811   2141.33911   2334.34009
     0.425000    1311.33325   1327.46240   1346.93921   1370.43811   1398.81433   1432.98926   1474.34412   1524.24121   1584.62134   1657.66235   1746.10046   1853.23718   1983.22449   2141.39429   2334.41748
     0.450000    1311.33325   1327.45972   1346.93372   1370.43079   1398.80627   1432.98071   1474.33630   1524.23303   1584.61377   1657.65698   1746.09985   1853.24597   1983.24805   2141.43433   2334.47754
     0.475000    1311.33325   1327.45813   1346.93042   1370.42737   1398.80383   1432.97961   1474.33752   1524.23755   1584.62256   1657.67273   1746.12634   1853.28796   1983.31299   2141.52686   2334.60254
     0.500000    1311.33325   1327.45642   1346.92676   1370.42273   1398.79944   1432.97559   1474.33545   1524.23706   1584.62524   1657.68018   1746.14185   1853.31726   1983.36414   2141.60278   2334.70874
     0.525000    1311.33325   1327.45520   1346.92139   1370.41492   1398.78992   1432.96460   1474.32312   1524.22351   1584.60999   1657.66467   1746.12866   1853.31128   1983.37122   2141.62524   2334.74902
     0.550000    1311.33325   1327.45178   1346.91296   1370.40198   1398.77380   1432.94336   1474.29724   1524.19214   1584.57214   1657.62000   1746.07910   1853.26086   1983.32446   2141.58228   2334.71021
     0.575000    1311.33325   1327.44788   1346.90320   1370.38635   1398.75330   1432.91638   1474.26270   1524.14905   1584.51929   1657.55664   1746.00610   1853.18127   1983.24182   2141.49536   2334.61865
     0.600000    1311.33325   1327.44421   1346.89343   1370.37085   1398.73218   1432.88879   1474.22864   1524.10645   1584.46680   1657.49402   1745.93335   1853.10242   1983.16028   2141.41064   2334.52881
     0.625000    1311.33325   1327.44177   1346.88684   1370.35986   1398.71790   1432.87012   1474.20496   1524.07739   1584.43066   1657.45190   1745.88647   1853.05505   1983.11902   2141.37598   2334.50171
     0.650000    1311.33325   1327.43970   1346.88123   1370.34973   1398.70435   1432.85291   1474.18420   1524.05200   1584.40051   1657.41748   1745.85022   1853.02197   1983.09607   2141.36450   2334.50439
     0.675000    1311.33325   1327.43762   1346.87500   1370.33948   1398.69092   1432.83569   1474.16284   1524.02649   1584.37000   1657.38220   1745.81274   1852.98718   1983.07080   2141.35132   2334.50562
     0.700000    1311.33325   1327.43518   1346.86902   1370.32910   1398.67651   1432.81677   1474.13904   1523.99792   1584.33435   1657.34009   1745.76636   1852.94189   1983.03198   2141.32104   2334.48584
     0.725000    1311.33325   1327.43225   1346.86194   1370.31689   1398.65979   1432.79456   1474.11084   1523.96252   1584.29077   1657.28796   1745.70764   1852.88086   1982.97485   2141.26904   2334.43921
     0.750000    1311.33325   1327.42932   1346.85449   1370.30432   1398.64233   1432.77100   1474.08105   1523.92517   1584.24500   1657.23267   1745.64478   1852.81433   1982.91113   2141.20801   2334.38159
     0.775000    1311.33325   1327.42578   1346.84558   1370.28943   1398.62097   1432.74231   1474.04456   1523.87976   1584.18872   1657.16479   1745.56665   1852.72913   1982.82361   2141.11914   2334.28979
     0.800000    1311.33325   1327.42224   1346.83667   1370.27417   1398.59973   1432.71387   1474.00720   1523.83276   1584.13013   1657.09363   1745.48291   1852.63696   1982.72717   2141.01855   2334.18359
     0.825000    1311.33325   1327.41907   1346.82861   1370.25916   1398.57825   1432.68506   1473.97083   1523.78662   1584.07275   1657.02417   1745.40247   1852.54871   1982.63696   2140.92627   2334.08813
     0.850000    1311.33325   1327.41724   1346.82336   1370.24927   1398.56482   1432.66687   1473.94763   1523.75806   1584.03796   1656.98315   1745.35779   1852.50537   1982.60193   2140.90234   2334.07715
     0.875000    1311.33325   1327.41650   1346.82019   1370.24268   1398.55554   1432.65515   1473.93298   1523.74060   1584.01794   1656.96069   1745.33557   1852.48999   1982.60120   2140.92139   2334.11963
     0.900000    1311.33325   1327.41565   1346.81738   1370.23706   1398.54688   1432.64355   1473.91907   1523.72437   1583.99939   1656.94055   1745.31775   1852.48022   1982.60815   2140.94995   2334.17432
     0.925000    1311.33325   1327.41479   1346.81482   1370.23096   1398.53809   1432.63220   1473.90552   1523.70874   1583.98096   1656.91980   1745.29810   1852.46814   1982.61230   2140.97437   2334.22217
     0.950000    1311.33325   1327.41345   1346.81128   1370.22388   1398.52771   1432.61841   1473.88794   1523.68762   1583.95654   1656.89209   1745.27026   1852.44507   1982.60181   2140.98071   2334.24805
     0.975000    1311.33325   1327.41199   1346.80701   1370.21533   1398.51501   1432.60132   1473.86694   1523.66138   1583.92480   1656.85596   1745.23157   1852.40918   1982.57532   2140.96729   2334.25000
     1.000000    1311.33325   1327.41028   1346.80237   1370.20630   1398.50122   1432.58289   1473.84387   1523.63379   1583.89136   1656.81738   1745.18958   1852.36877   1982.54309   2140.94678   2334.24219
     1.025000    1311.33325   1327.40845   1346.79736   1370.19666   1398.48657   1432.56299   1473.81885   1523.60315   1583.85437   1656.77417   1745.14185   1852.32092   1982.50122   2140.91406   2334.21924
     1.050000    1311.33325   1327.40649   1346.79163   1370.18591   1398.47034   1432.54126   1473.79163   1523.57068   1583.81519   1656.72742   1745.09009   1852.26807   1982.45361   2140.87378   2334.18628
     1.075000    1311.33325   1327.40454   1346.78662   1370.17542   1398.45410   1432.51855   1473.76318   1523.53564   1583.77319   1656.67847   1745.03467   1852.21082   1982.39966   2140.82544   2334.14307
     1.100000    1311.33325   1327.40259   1346.78162   1370.16541   1398.43860   1432.49792   1473.73669   1523.50342   1583.73462   1656.63306   1744.98438   1852.15955   1982.35291   2140.78467   2334.10962
     1.125000    1311.33325   1327.40076   1346.77673   1370.15564   1398.42346   1432.47742   1473.71118   1523.47180   1583.69629   1656.58826   1744.93469   1852.10791   1982.30518   2140.74365   2334.07520
     1.150000    1311.33325   1327.39868   1346.77173   1370.14587   1398.40833   1432.45630   1473.68433   1523.43970   1583.65857   1656.54419   1744.88538   1852.05774   1982.25879   2140.70337   2334.03955
     1.175000    1311.33325   1327.39648   1346.76562   1370.13513   1398.39197   1432.43445   1473.65686   1523.40588   1583.61792   1656.49634   1744.83264   1852.00305   1982.20618   2140.65430   2333.99316
     1.200000    1311.33325   1327.39453   1346.76062   1370.12646   1398.37817   1432.41528   1473.63293   1523.37708   1583.58398   1656.45764   1744.79016   1851.96045   1982.16833   2140.62329   2333.96875
     1.225000    1311.33325   1327.39319   1346.75684   1370.11926   1398.36621   1432.39966   1473.61389   1523.35486   1583.55847   1656.42883   1744.76050   1851.93359   1982.14966   2140.61572   2333.97266
     1.250000    1311.33325   1327.39197   1346.75378   1370.11340   1398.35657   1432.38696   1473.59827   1523.33704   1583.53894   1656.40820   1744.74158   1851.92041   1982.14758   2140.62817   2334.00049
     1.275000    1311.33325   1327.39075   1346.75061   1370.10693   1398.34656   1432.37329   1473.58252   1523.31934   1583.51978   1656.38879   1744.72351   1851.90784   1982.14600   2140.64160   2334.02881
     1.300000    1311.33325   1327.38953   1346.74792   1370.10181   1398.33789   1432.36121   1473.56885   1523.30396   1583.50354   1656.37158   1744.70837   1851.89868   1982.14746   2140.65649   2334.05786
     1.325000    1311.33325   1327.38794   1346.74390   1370.09460   1398.32751   1432.34729   1473.55188   1523.28467   1583.48254   1656.34888   1744.68591   1851.88062   1982.13843   2140.65845   2334.07056
     1.350000    1311.33325   1327.38635   1346.73987   1370.08765   1398.31665   1432.33350   1473.53552   1523.26599   1583.46216   1656.32800   1744.66577   1851.86487   1982.13074   2140.66138   2334.08350
     1.375000    1311.33325   1327.38464   1346.73645   1370.08154   1398.30676   1432.32019   1473.52026   1523.24878   1583.44360   1656.30884   1744.64783   1851.85095   1982.12512   2140.66577   2334.09741
     1.400000    1311.33325   1327.38293   1346.73206   1370.07349   1398.29529   1432.30579   1473.50330   1523.22974   1583.42310   1656.28711   1744.62732   1851.83435   1982.11633   2140.66650   2334.10620
     1.425000    1311.33325   1327.38110   1346.72791   1370.06616   1398.28455   1432.29236   1473.48718   1523.21191   1583.40356   1656.26685   1744.60864   1851.82080   1982.11060   2140.67017   2334.11694
     1.450000    1311.33325   1327.37939   1346.72400   1370.05945   1398.27478   1432.27954   1473.47253   1523.19604   1583.38684   1656.25098   1744.59534   1851.81226   1982.11084   2140.68042   2334.13623
     1.475000    1311.33325   1327.37781   1346.72058   1370.05347   1398.26685   1432.26965   1473.46155   1523.18384   1583.37524   1656.24023   1744.58813   1851.81152   1982.11975   2140.70093   2334.16675
     1.500000    1311.33325   1327.37634   1346.71692   1370.04810   1398.25854   1432.25916   1473.44983   1523.17139   1583.36340   1656.22986   1744.58154   1851.81128   1982.12927   2140.72168   2334.19775
     1.525000    1311.33325   1327.37451   1346.71301   1370.04126   1398.24878   1432.24756   1473.43652   1523.15747   1583.34900   1656.21606   1744.56982   1851.80469   1982.13049   2140.73169   2334.21484
     1.550000    1311.33325   1327.37244   1346.70862   1370.03406   1398.23840   1432.23425   1473.42139   1523.14124   1583.33179   1656.19885   1744.55469   1851.79333   1982.12500   2140.73291   2334.21997
     1.575000    1311.33325   1327.37000   1346.70447   1370.02698   1398.22852   1432.22168   1473.40723   1523.12585   1583.31567   1656.18298   1744.54089   1851.78296   1982.12097   2140.73511   2334.22632
     1.600000    1311.33325   1327.36804   1346.70007   1370.02002   1398.21887   1432.20972   1473.39368   1523.11108   1583.30078   1656.16882   1744.52856   1851.77502   1982.12012   2140.74170   2334.23877
     1.625000    1311.33325   1327.36707   1346.69690   1370.01514   1398.21143   1432.20056   1473.38354   1523.10034   1583.29053   1656.15991   1744.52319   1851.77527   1982.12769   2140.75806   2334.26172
     1.650000    1311.33325   1327.36523   1346.69299   1370.00830   1398.20227   1432.18921   1473.37085   1523.08679   1583.27698   1656.14685   1744.51184   1851.76770   1982.12610   2140.76318   2334.27173
     1.675000    1311.33325   1327.36401   1346.68958   1370.00220   1398.19360   1432.17798   1473.35815   1523.07324   1583.26282   1656.13232   1744.49878   1851.75757   1982.12073   2140.76318   2334.27612
     1.700000    1311.33325   1327.36255   1346.68616   1369.99609   1398.18396   1432.16602   1473.34473   1523.05920   1583.24854   1656.11792   1744.48621   1851.74756   1982.11621   2140.76392   2334.28003
     1.725000    1311.33325   1327.36072   1346.68225   1369.98950   1398.17419   1432.15405   1473.33118   1523.04468   1583.23364   1656.10352   1744.47290   1851.73718   1982.11096   2140.76343   2334.28320
     1.750000    1311.33325   1327.35938   1346.67908   1369.98389   1398.16589   1432.14355   1473.31982   1523.03333   1583.22205   1656.09253   1744.46423   1851.73181   1982.11157   2140.77100   2334.29639
     1.775000    1311.33325   1327.35876   1346.67688   1369.97949   1398.15881   1432.13464   1473.31006   1523.02319   1583.21289   1656.08435   1744.45874   1851.73047   1982.11682   2140.78345   2334.31470
     1.800000    1311.33325   1327.35779   1346.67432   1369.97473   1398.15125   1432.12500   1473.29944   1523.01282   1583.20300   1656.07581   1744.45154   1851.72693   1982.11853   2140.79126   2334.32788
     1.825000    1311.33325   1327.35669   1346.67151   1369.96997   1398.14355   1432.11499   1473.28821   1523.00098   1583.19116   1656.06445   1744.44116   1851.71936   1982.11560   2140.79346   2334.33398
     1.850000    1311.33325   1327.35559   1346.66858   1369.96423   1398.13525   1432.10413   1473.27600   1522.98840   1583.17834   1656.05115   1744.42847   1851.70776   1982.10767   2140.78979   2334.33228
     1.875000    1311.33325   1327.35449   1346.66565   1369.95874   1398.12622   1432.09253   1473.26294   1522.97485   1583.16455   1656.03699   1744.41467   1851.69519   1982.09827   2140.78345   2334.32861
     1.900000    1311.33325   1327.35339   1346.66309   1369.95361   1398.11792   1432.08228   1473.25085   1522.96265   1583.15234   1656.02490   1744.40393   1851.68628   1982.09290   2140.78125   2334.32861
     1.925000    1311.33325   1327.35254   1346.66077   1369.94885   1398.11072   1432.07227   1473.24036   1522.95178   1583.14185   1656.01489   1744.39478   1851.67871   1982.08936   2140.78271   2334.33301
     1.950000    1311.33325   1327.35181   1346.65857   1369.94446   1398.10352   1432.06262   1473.22974   1522.94055   1583.13110   1656.00525   1744.38586   1851.67175   1982.08606   2140.78418   2334.33765
     1.975000    1311.33325   1327.35083   1346.65613   1369.94006   1398.09607   1432.05237   1473.21851   1522.92944   1583.11951   1655.99426   1744.37573   1851.66296   1982.08057   2140.78174   2334.33813
     2.000000    1311.33325   1327.34949   1346.65332   1369.93481   1398.08728   1432.04065   1473.20557   1522.91565   1583.10608   1655.98108   1744.36279   1851.65088   1982.07141   2140.77515   2334.33325
     2.025000    1311.33325   1327.34827   1346.65063   1369.92993   1398.07874   1432.02930   1473.19275   1522.90222   1583.09241   1655.96716   1744.34863   1851.63745   1982.05945   2140.76514   2334.32349
     2.050000    1311.33325   1327.34753   1346.64856   1369.92566   1398.07166   1432.01917   1473.18115   1522.89050   1583.08032   1655.95471   1744.33643   1851.62451   1982.04749   2140.75464   2334.31201
     2.075000    1311.33325   1327.34680   1346.64624   1369.92102   1398.06348   1432.00769   1473.16821   1522.87683   1583.06604   1655.93909   1744.31970   1851.60706   1982.03076   2140.73828   2334.29443
     2.100000    1311.33325   1327.34595   1346.64404   1369.91687   1398.05603   1431.99719   1473.15649   1522.86499   1583.05396   1655.92712   1744.30798   1851.59521   1982.02124   2140.73071   2334.28760
     2.125000    1311.33325   1327.34521   1346.64282   1369.91370   1398.05005   1431.98840   1473.14612   1522.85449   1583.04358   1655.91699   1744.29822   1851.58606   1982.01404   2140.72656   2334.28540
     2.150000    1311.33325   1327.34473   1346.64111   1369.91125   1398.04578   1431.98181   1473.13953   1522.84827   1583.03894   1655.91370   1744.29663   1851.58655   1982.01917   2140.73730   2334.30225
     2.175000    1311.33325   1327.34424   1346.64038   1369.90894   1398.04114   1431.97498   1473.13257   1522.84265   1583.03430   1655.91052   1744.29590   1851.58826   1982.02600   2140.75122   2334.32275
     2.200000    1311.33325   1327.34375   1346.63892   1369.90686   1398.03687   1431.96851   1473.12598   1522.83728   1583.03064   1655.90833   1744.29541   1851.59070   1982.03357   2140.76587   2334.34448
     2.225000    1311.33325   1327.34314   1346.63733   1369.90344   1398.03174   1431.96143   1473.11829   1522.83032   1583.02441   1655.90295   1744.29089   1851.58813   1982.03491   2140.77295   2334.35596
     2.250000    1311.33325   1327.34216   1346.63562   1369.90002   1398.02576   1431.95239   1473.10840   1522.82007   1583.01294   1655.89062   1744.27649   1851.57312   1982.02100   2140.76123   2334.34546
     2.275000    1311.33325   1327.34119   1346.63342   1369.89624   1398.01868   1431.94165   1473.09595   1522.80652   1582.99829   1655.87378   1744.25745   1851.55225   1981.99927   2140.73950   2334.32202
     2.300000    1311.33325   1327.33997   1346.63074   1369.89111   1398.01050   1431.92932   1473.08057   1522.78955   1582.97913   1655.85144   1744.23132   1851.52197   1981.96667   2140.70459   2334.28320
     2.325000    1311.33325   1327.33887   1346.62756   1369.88562   1398.00183   1431.91650   1473.06494   1522.77222   1582.95947   1655.82849   1744.20447   1851.49072   1981.93335   2140.66919   2334.24365
     2.350000    1311.33325   1327.33777   1346.62549   1369.88135   1397.99451   1431.90442   1473.05005   1522.75647   1582.94080   1655.80627   1744.17822   1851.46069   1981.90100   2140.63525   2334.20654
     2.375000    1311.33325   1327.33679   1346.62268   1369.87708   1397.98694   1431.89258   1473.03589   1522.74023   1582.92200   1655.78357   1744.15076   1851.42859   1981.86633   2140.59912   2334.16553
     2.400000    1311.33325   1327.33582   1346.62061   1369.87219   1397.97815   1431.87903   1473.01855   1522.72058   1582.89929   1655.75598   1744.11682   1851.38916   1981.82336   2140.55273   2334.11328
     2.425000    1311.33325   1327.33484   1346.61816   1369.86731   1397.96924   1431.86511   1473.00061   1522.70032   1582.87512   1655.72632   1744.08105   1851.34705   1981.77673   2140.50171   2334.05518
     2.450000    1311.33325   1327.33374   1346.61487   1369.86145   1397.95959   1431.84985   1472.98096   1522.67761   1582.84802   1655.69214   1744.03882   1851.29688   1981.72034   2140.43994   2333.98462
     2.475000    1311.33325   1327.33215   1346.61206   1369.85681   1397.95093   1431.83533   1472.96228   1522.65588   1582.82141   1655.65808   1743.99683   1851.24707   1981.66443   2140.37964   2333.91577
     2.500000    1311.33325   1327.33154   1346.60950   1369.85168   1397.94226   1431.82080   1472.94299   1522.63318   1582.79407   1655.62439   1743.95520   1851.19727   1981.60925   2140.32031   2333.84937
     2.525000    1311.33325   1327.33081   1346.60791   1369.84790   1397.93542   1431.80884   1472.92603   1522.61414   1582.77112   1655.59546   1743.91870   1851.15405   1981.56226   2140.27026   2333.79346
     2.550000    1311.33325   1327.32996   1346.60571   1369.84448   1397.92908   1431.79773   1472.91077   1522.59680   1582.75024   1655.56836   1743.88416   1851.11340   1981.51892   2140.22607   2333.74585
     2.575000    1311.33325   1327.32886   1346.60339   1369.84094   1397.92310   1431.78748   1472.89661   1522.58105   1582.73157   1655.54480   1743.85461   1851.07886   1981.48303   2140.19067   2333.70972
     2.600000    1311.33325   1327.32861   1346.60217   1369.83813   1397.91785   1431.77893   1472.88440   1522.56738   1582.71533   1655.52368   1743.82751   1851.04700   1981.45117   2140.16113   2333.68042
     2.625000    1311.33325   1327.32812   1346.60083   1369.83533   1397.91357   1431.77087   1472.87329   1522.55469   1582.70044   1655.50366   1743.80054   1851.01575   1981.41956   2140.13135   2333.65088
     2.650000    1311.33325   1327.32751   1346.59937   1369.83252   1397.90820   1431.76184   1472.86108   1522.54065   1582.68323   1655.48096   1743.77148   1850.98145   1981.38452   2140.09814   2333.61816
     2.675000    1311.33325   1327.32666   1346.59827   1369.83008   1397.90393   1431.75354   1472.84863   1522.52563   1582.66528   1655.45679   1743.73938   1850.94409   1981.34534   2140.06079   2333.58008
     2.700000    1311.33325   1327.32581   1346.59607   1369.82690   1397.89832   1431.74390   1472.83447   1522.50989   1582.64575   1655.43079   1743.70532   1850.90259   1981.30249   2140.01855   2333.53760
     2.725000    1311.33325   1327.32483   1346.59387   1369.82349   1397.89221   1431.73315   1472.81909   1522.49194   1582.62378   1655.40210   1743.66736   1850.85645   1981.25293   2139.96924   2333.48608
     2.750000    1311.33325   1327.32373   1346.59204   1369.81958   1397.88586   1431.72290   1472.80383   1522.47314   1582.60107   1655.37183   1743.62634   1850.80701   1981.19995   2139.91504   2333.42871
     2.775000    1311.33325   1327.32251   1346.58960   1369.81506   1397.87927   1431.71143   1472.78760   1522.45276   1582.57605   1655.33813   1743.58130   1850.75195   1981.13940   2139.85132   2333.35962
     2.800000    1311.33325   1327.32104   1346.58667   1369.81018   1397.87158   1431.69897   1472.76953   1522.43030   1582.54797   1655.30066   1743.53052   1850.68958   1981.07019   2139.77759   2333.27954
     2.825000    1311.33325   1327.31958   1346.58301   1369.80469   1397.86328   1431.68567   1472.74963   1522.40527   1582.51672   1655.25879   1743.47461   1850.62048   1980.99231   2139.69434   2333.18823
     2.850000    1311.33325   1327.31824   1346.58020   1369.79944   1397.85510   1431.67334   1472.73096   1522.38135   1582.48608   1655.21753   1743.41919   1850.55103   1980.91418   2139.61108   2333.09717
     2.875000    1311.33325   1327.31689   1346.57678   1369.79395   1397.84607   1431.65979   1472.71106   1522.35596   1582.45422   1655.17566   1743.36267   1850.48035   1980.83496   2139.52661   2333.00464
     2.900000    1311.33325   1327.31567   1346.57385   1369.78955   1397.83850   1431.64795   1472.69287   1522.33240   1582.42444   1655.13513   1743.30750   1850.41089   1980.75696   2139.44336   2332.91479
     2.925000    1311.33325   1327.31409   1346.57117   1369.78442   1397.83057   1431.63562   1472.67444   1522.30847   1582.39429   1655.09460   1743.25220   1850.34131   1980.67896   2139.36035   2332.82568
     2.950000    1311.33325   1327.31311   1346.56848   1369.78040   1397.82397   1431.62415   1472.65686   1522.28540   1582.36523   1655.05542   1743.19849   1850.27332   1980.60242   2139.27954   2332.73975
     2.975000    1311.33325   1327.31226   1346.56616   1369.77625   1397.81714   1431.61353   1472.64014   1522.26294   1582.33679   1655.01709   1743.14526   1850.20520   1980.52576   2139.19849   2332.65332
     3.000000    1311.33325   1327.31128   1346.56360   1369.77209   1397.81042   1431.60242   1472.62292   1522.23975   1582.30762   1654.97791   1743.09131   1850.13647   1980.44775   2139.11621   2332.56592
     3.025000    1311.33325   1327.31018   1346.56165   1369.76782   1397.80420   1431.59204   1472.60681   1522.21753   1582.27942   1654.93994   1743.03857   1850.06860   1980.37073   2139.03442   2332.47900
     3.050000    1311.33325   1327.30896   1346.55884   1369.76294   1397.79700   1431.58179   1472.59009   1522.19458   1582.25049   1654.90198   1742.98596   1850.00098   1980.29431   2138.95361   2332.39307
     3.075000    1311.33325   1327.30786   1346.55615   1369.75891   1397.79028   1431.57153   1472.57397   1522.17224   1582.22217   1654.86401   1742.93408   1849.93347   1980.21826   2138.87305   2332.30859
     3.100000    1311.33325   1327.30664   1346.55359   1369.75500   1397.78381   1431.56104   1472.55896   1522.15100   1582.19543   1654.82825   1742.88391   1849.86877   1980.14478   2138.79565   2332.22705
     3.125000    1311.33325   1327.30554   1346.55176   1369.75085   1397.77734   1431.55151   1472.54370   1522.12939   1582.16821   1654.79211   1742.83374   1849.80383   1980.07104   2138.71729   2332.14575
     3.150000    1311.33325   1327.30444   1346.54895   1369.74622   1397.77026   1431.54102   1472.52759   1522.10669   1582.13953   1654.75476   1742.78247   1849.73853   1979.99658   2138.63867   2332.06226
     3.175000    1311.33325   1327.30322   1346.54626   1369.74219   1397.76404   1431.53137   1472.51221   1522.08521   1582.11133   1654.71851   1742.73254   1849.67358   1979.92297   2138.55957   2331.97827
     3.200000    1311.33325   1327.30212   1346.54333   1369.73779   1397.75696   1431.52087   1472.49597   1522.06213   1582.08142   1654.68018   1742.68054   1849.60632   1979.84546   2138.47559   2331.88892
     3.225000    1311.33325   1327.30078   1346.54053   1369.73242   1397.74915   1431.50940   1472.47864   1522.03711   1582.05005   1654.63989   1742.62683   1849.53723   1979.76685   2138.39038   2331.79688
     3.250000    1311.33325   1327.29944   1346.53821   1369.72791   1397.74194   1431.49817   1472.46143   1522.01233   1582.01819   1654.59998   1742.57385   1849.46973   1979.68884   2138.30566   2331.70459
     3.275000    1311.33325   1327.29822   1346.53503   1369.72339   1397.73511   1431.48743   1472.44507   1521.98877   1581.98804   1654.56238   1742.52405   1849.40625   1979.61597   2138.22559   2331.61890
     3.300000    1311.33325   1327.29639   1346.53210   1369.71887   1397.72815   1431.47705   1472.42908   1521.96558   1581.95898   1654.52576   1742.47607   1849.34546   1979.54663   2138.14941   2331.53613
     3.325000    1311.33325   1327.29492   1346.52942   1369.71399   1397.72156   1431.46716   1472.41394   1521.94348   1581.93066   1654.49133   1742.43176   1849.28979   1979.48279   2138.07935   2331.46094
     3.350000    1311.33325   1327.29407   1346.52661   1369.70923   1397.71448   1431.45740   1472.39941   1521.92188   1581.90332   1654.45776   1742.38892   1849.23584   1979.42102   2138.01147   2331.38818
     3.375000    1311.33325   1327.29297   1346.52405   1369.70532   1397.70825   1431.44788   1472.38452   1521.90027   1581.87646   1654.42566   1742.34912   1849.18604   1979.36426   2137.94971   2331.32153
     3.400000    1311.33325   1327.29187   1346.52100   1369.70020   1397.70129   1431.43750   1472.36865   1521.87720   1581.84790   1654.39197   1742.30688   1849.13440   1979.30554   2137.88379   2331.24976
     3.425000    1311.33325   1327.29041   1346.51855   1369.69580   1397.69409   1431.42700   1472.35339   1521.85486   1581.81995   1654.35938   1742.26709   1849.08582   1979.25000   2137.82153   2331.18042
     3.450000    1311.33325   1327.28894   1346.51562   1369.69055   1397.68677   1431.41614   1472.33655   1521.83057   1581.78943   1654.32483   1742.22546   1849.03613   1979.19324   2137.75610   2331.10767
     3.475000    1311.33325   1327.28735   1346.51184   1369.68469   1397.67847   1431.40454   1472.31921   1521.80530   1581.75891   1654.29028   1742.18542   1848.98877   1979.13965   2137.69409   2331.03857
     3.500000    1311.33325   1327.28589   1346.50891   1369.67981   1397.67126   1431.39417   1472.30334   1521.78284   1581.73120   1654.25952   1742.15100   1848.94910   1979.09448   2137.64160   2330.97949
     3.525000    1311.33325   1327.28381   1346.50488   1369.67395   1397.66272   1431.38232   1472.28662   1521.75916   1581.70300   1654.22961   1742.11816   1848.91321   1979.05566   2137.59619   2330.92871
     3.550000    1311.33325   1327.28296   1346.50293   1369.67041   1397.65698   1431.37415   1472.27466   1521.74194   1581.68213   1654.20886   1742.09729   1848.89233   1979.03442   2137.57056   2330.90063