Triton                     1  1 trit  ( 39.892,-102.670) (  26,  28) ( 40.009,-102.667) 1311.3 meters
     0.025000     295.22409    295.88232    296.53745    297.31766    298.27255    299.07172    299.89044    300.77676    301.69250    302.56268    303.26587    303.66025    304.17993    304.63159    304.84280
     0.050000     295.12210    295.86835    296.54135    297.32721    298.31534    299.12231    299.94971    300.84662    301.76971    302.62891    303.30399    303.68115    304.20117    304.64969    304.86160
     0.075000     295.02231    295.84369    296.54056    297.33466    298.35553    299.16995    300.00549    300.91272    301.84323    302.69052    303.34225    303.70279    304.22287    304.66803    304.88046
     0.100000     294.92654    295.81348    296.53741    297.34088    298.39310    299.21475    300.05795    300.97519    301.91296    302.74826    303.37997    303.72491    304.24484    304.68646    304.89932
     0.125000     294.83276    295.78094    296.53323    297.34610    298.42706    299.25580    300.10608    301.03302    301.97797    302.80188    303.41641    303.74719    304.26672    304.70477    304.91794
     0.150000     294.74133    295.74835    296.52887    297.35040    298.45651    299.29221    300.14893    301.08517    302.03729    302.85095    303.45105    303.76926    304.28827    304.72281    304.93616
     0.175000     294.65131    295.71735    296.52493    297.35376    298.48099    299.32355    300.18613    301.13123    302.09039    302.89532    303.48364    303.79099    304.30936    304.74048    304.95389
     0.200000     294.56442    295.68781    296.52109    297.35596    298.50098    299.35040    300.21829    301.17172    302.13788    302.93546    303.51440    303.81253    304.33014    304.75793    304.97125
     0.225000     294.48114    295.65738    296.51614    297.35645    298.51712    299.37341    300.24600    301.20734    302.18042    302.97186    303.54364    303.83401    304.35071    304.77530    304.98834
     0.250000     294.40091    295.62485    296.50955    297.35501    298.52948    299.39279    300.26956    301.23825    302.21820    303.00470    303.57126    303.85535    304.37088    304.79245    305.00507
     0.275000     294.32239    295.59106    296.50165    297.35178    298.53806    299.40863    300.28894    301.26447    302.25122    303.03403    303.59723    303.87637    304.39053    304.80930    305.02136
     0.300000     294.24597    295.55542    296.49191    297.34637    298.54233    299.42038    300.30368    301.28543    302.27905    303.05948    303.62128    303.89694    304.40942    304.82571    305.03708
     0.325000     294.17090    295.51718    296.47980    297.33847    298.54205    299.42764    300.31339    301.30072    302.30127    303.08087    303.64325    303.91696    304.42755    304.84174    305.05225
     0.350000     294.09836    295.47476    296.46451    297.32809    298.53745    299.43063    300.31824    301.31055    302.31805    303.09830    303.66324    303.93655    304.44513    304.85748    305.06696
     0.375000     294.02826    295.42670    296.44504    297.31491    298.52859    299.42941    300.31839    301.31509    302.32962    303.11188    303.68127    303.95572    304.46207    304.87296    305.08127
     0.400000     293.96066    295.37332    296.42114    297.29895    298.51569    299.42413    300.31406    301.31451    302.33609    303.12170    303.69730    303.97437    304.47845    304.88818    305.09518
     0.425000     293.89545    295.31528    296.39273    297.28018    298.49881    299.41476    300.30530    301.30893    302.33762    303.12799    303.71140    303.99255    304.49435    304.90320    305.10880
     0.450000     293.83310    295.25311    296.35965    297.25879    298.47830    299.40158    300.29242    301.29874    302.33453    303.13086    303.72372    304.01038    304.50998    304.91815    305.12222
     0.475000     293.77319    295.18793    296.32211    297.23492    298.45477    299.38504    300.27606    301.28464    302.32751    303.13086    303.73447    304.02792    304.52563    304.93323    305.13571
     0.500000     293.71484    295.12091    296.28070    297.20880    298.42862    299.36560    300.25668    301.26718    302.31711    303.12836    303.74387    304.04532    304.54141    304.94849    305.14926
     0.525000     293.67117    295.05481    296.23572    297.18088    298.39972    299.34317    300.23453    301.24655    302.30325    303.12338    303.75192    304.06238    304.55710    304.96368    305.16272
     0.550000     293.62592    294.98996    296.18878    297.15125    298.36877    299.31836    300.20996    301.22327    302.28668    303.11639    303.75873    304.07916    304.57285    304.97897    305.17624
     0.575000     293.58026    294.92587    296.13968    297.11975    298.33585    299.29126    300.18311    301.19745    302.26749    303.10742    303.76431    304.09564    304.58862    304.99438    305.18982
     0.600000     293.53662    294.86176    296.08755    297.08597    298.30081    299.26184    300.15402    301.16919    302.24582    303.09656    303.76877    304.11182    304.60437    305.00986    305.20343
     0.625000     293.49463    294.79791    296.03271    297.04999    298.26392    299.23041    300.12299    301.13873    302.22177    303.08392    303.77209    304.12766    304.62012    305.02536    305.21704
     0.650000     293.45300    294.73508    295.97598    297.01196    298.22525    299.19711    300.09015    301.10632    302.19565    303.06964    303.77435    304.14316    304.63574    305.04083    305.23065
     0.675000     293.41052    294.67343    295.91800    296.97223    298.18500    299.16214    300.05582    301.07227    302.16769    303.05389    303.77557    304.15823    304.65121    305.05630    305.24426
     0.700000     293.36676    294.61334    295.85977    296.93137    298.14368    299.12595    300.02042    301.03702    302.13840    303.03708    303.77597    304.17297    304.66666    305.07178    305.25790
     0.725000     293.32153    294.55505    295.80212    296.88992    298.10168    299.08890    299.98431    301.00107    302.10822    303.01947    303.77579    304.18750    304.68216    305.08731    305.27164
     0.750000     293.27563    294.49844    295.74524    296.84818    298.05936    299.05127    299.94791    300.96484    302.07761    303.00153    303.77527    304.20187    304.69788    305.10303    305.28555
     0.775000     293.23102    294.44302    295.68826    296.80582    298.01669    299.01312    299.91119    300.92844    302.04666    302.98328    303.77454    304.21622    304.71387    305.11902    305.29974
     0.800000     293.18927    294.38800    295.63019    296.76224    297.97354    298.97455    299.87418    300.89178    302.01535    302.96472    303.77359    304.23056    304.73013    305.13519    305.31412
     0.825000     293.15103    294.33319    295.57037    296.71698    297.92972    298.93536    299.83679    300.85486    301.98361    302.94583    303.77240    304.24484    304.74655    305.15152    305.32867
     0.850000     293.11560    294.27884    295.50919    296.67023    297.88531    298.89606    299.79932    300.81790    301.95166    302.92673    303.77100    304.25906    304.76315    305.16794    305.34332
     0.875000     293.08182    294.22546    295.44739    296.62234    297.84061    298.85669    299.76205    300.78119    301.91977    302.90759    303.76950    304.27322    304.77985    305.18454    305.35812
     0.900000     293.04807    294.17331    295.38574    296.57367    297.79581    298.81747    299.72510    300.74496    301.88818    302.88858    303.76804    304.28735    304.79666    305.20117    305.37308
     0.925000     293.01367    294.12234    295.32480    296.52463    297.75113    298.77866    299.68878    300.70941    301.85715    302.87000    303.76669    304.30151    304.81366    305.21796    305.38818
     0.950000     292.97931    294.07281    295.26489    296.47552    297.70682    298.74048    299.65332    300.67487    301.82697    302.85199    303.76569    304.31583    304.83096    305.23489    305.40347
     0.975000     292.94626    294.02448    295.20547    296.42603    297.66284    298.70306    299.61877    300.64145    301.79782    302.83484    303.76520    304.33041    304.84854    305.25208    305.41901
     1.000000     292.91531    293.97723    295.14615    296.37582    297.61905    298.66647    299.58530    300.60925    301.76981    302.81860    303.76532    304.34525    304.86649    305.26947    305.43475
     1.025000     292.88577    293.93311    295.08899    296.32492    297.57587    298.63083    299.55304    300.57867    301.74329    302.80341    303.76587    304.35992    304.88443    305.28674    305.45041
     1.050000     292.85648    293.88998    295.03296    296.27402    297.53296    298.59622    299.52194    300.54941    301.71799    302.78918    303.76703    304.37482    304.90256    305.30411    305.46619
     1.075000     292.82825    293.84799    294.97800    296.22314    297.49039    298.56265    299.49210    300.52151    301.69394    302.77597    303.76868    304.38986    304.92081    305.32147    305.48206
     1.100000     292.80057    293.80713    294.92447    296.17273    297.44843    298.53027    299.46356    300.49509    301.67126    302.76379    303.77094    304.40503    304.93915    305.33884    305.49796
     1.125000     292.77316    293.76752    294.87271    296.12320    297.40738    298.49918    299.43655    300.47025    301.65009    302.75287    303.77390    304.42038    304.95761    305.35614    305.51392
     1.150000     292.74554    293.72891    294.82278    296.07480    297.36743    298.46942    299.41104    300.44714    301.63055    302.74323    303.77759    304.43594    304.97614    305.37341    305.52991
     1.175000     292.71786    293.69128    294.77463    296.02765    297.32861    298.44110    299.38712    300.42575    301.61270    302.73499    303.78210    304.45175    304.99478    305.39062    305.54593
     1.200000     292.69055    293.65485    294.72842    295.98206    297.29129    298.41440    299.36496    300.40631    301.59674    302.72833    303.78760    304.46790    305.01358    305.40781    305.56198
     1.225000     292.66379    293.61935    294.68375    295.93771    297.25531    298.38922    299.34457    300.38882    301.58270    302.72330    303.79410    304.48444    305.03256    305.42493    305.57812
     1.250000     292.63776    293.58487    294.64069    295.89478    297.22079    298.36572    299.32599    300.37335    301.57065    302.71997    303.80170    304.50134    305.05173    305.44202    305.59430
     1.275000     292.61084    293.55115    294.59930    295.85352    297.18790    298.34387    299.30917    300.35983    301.56058    302.71829    303.81033    304.51862    305.07101    305.45901    305.61053
     1.300000     292.58337    293.51819    294.55975    295.81418    297.15689    298.32382    299.29425    300.34839    301.55258    302.71844    303.82007    304.53629    305.09042    305.47589    305.62677
     1.325000     292.55551    293.48584    294.52182    295.77670    297.12778    298.30548    299.28110    300.33896    301.54657    302.72034    303.83093    304.55435    305.10995    305.49268    305.64307
     1.350000     292.52771    293.45413    294.48532    295.74100    297.10056    298.28891    299.26978    300.33151    301.54263    302.72397    303.84290    304.57285    305.12958    305.50925    305.65942
     1.375000     292.50000    293.42303    294.45029    295.70706    297.07529    298.27411    299.26025    300.32602    301.54068    302.72937    303.85593    304.59167    305.14929    305.52570    305.67578
     1.400000     292.47208    293.39227    294.41638    295.67468    297.05179    298.26089    299.25232    300.32233    301.54053    302.73633    303.86990    304.61078    305.16895    305.54190    305.69208
     1.425000     292.44409    293.36206    294.38379    295.64410    297.03027    298.24939    299.24603    300.32037    301.54214    302.74475    303.88477    304.63013    305.18851    305.55786    305.70834
     1.450000     292.41586    293.33215    294.35220    295.61508    297.01056    298.23938    299.24118    300.31998    301.54532    302.75455    303.90033    304.64960    305.20795    305.57349    305.72452
     1.475000     292.38739    293.30252    294.32169    295.58762    296.99268    298.23087    299.23773    300.32104    301.54996    302.76547    303.91647    304.66907    305.22711    305.58875    305.74054
     1.500000     292.35895    293.27316    294.29190    295.56128    296.97614    298.22351    299.23535    300.32324    301.55563    302.77722    303.93295    304.68845    305.24594    305.60361    305.75641
     1.525000     292.32935    293.24417    294.26349    295.53644    296.96082    298.21689    299.23370    300.32620    301.56198    302.78925    303.94910    304.70709    305.26392    305.61768    305.77170
     1.550000     292.29950    293.21518    294.23553    295.51227    296.94617    298.21078    299.23254    300.32953    301.56863    302.80124    303.96487    304.72519    305.28125    305.63120    305.78671
     1.575000     292.27127    293.18634    294.20737    295.48782    296.93155    298.20493    299.23163    300.33295    301.57510    302.81284    303.97989    304.74252    305.29779    305.64410    305.80130
     1.600000     292.24408    293.15753    294.17886    295.46295    296.91672    298.19901    299.23062    300.33606    301.58099    302.82355    303.99384    304.75891    305.31342    305.65631    305.81537
     1.625000     292.21786    293.12888    294.14999    295.43762    296.90146    298.19290    299.22943    300.33875    301.58615    302.83325    304.00656    304.77423    305.32803    305.66779    305.82889
     1.650000     292.19250    293.10034    294.12067    295.41150    296.88565    298.18643    299.22787    300.34082    301.59042    302.84171    304.01785    304.78836    305.34164    305.67850    305.84186
     1.675000     292.16772    293.07205    294.09116    295.38489    296.86938    298.17966    299.22598    300.34232    301.59378    302.84897    304.02780    304.80139    305.35425    305.68848    305.85422
     1.700000     292.14377    293.04407    294.06140    295.35760    296.85251    298.17255    299.22382    300.34326    301.59631    302.85504    304.03647    304.81332    305.36591    305.69778    305.86603
     1.725000     292.12033    293.01645    294.03149    295.32974    296.83511    298.16522    299.22134    300.34375    301.59811    302.86008    304.04385    304.82425    305.37671    305.70645    305.87732
     1.750000     292.09766    292.98923    294.00137    295.30109    296.81702    298.15756    299.21869    300.34384    301.59921    302.86407    304.05008    304.83417    305.38672    305.71451    305.88812
     1.775000     292.07623    292.96265    293.97119    295.27182    296.79828    298.14926    299.21622    300.34360    301.59973    302.86716    304.05521    304.84320    305.39594    305.72202    305.89844
     1.800000     292.05542    292.93649    293.94095    295.24179    296.77887    298.14075    299.21362    300.34305    301.59973    302.86938    304.05933    304.85135    305.40445    305.72897    305.90836
     1.825000     292.03528    292.91089    293.91074    295.21127    296.75885    298.13214    299.21091    300.34229    301.59930    302.87082    304.06247    304.85867    305.41229    305.73541    305.91785
     1.850000     292.01593    292.88589    293.88077    295.18030    296.73831    298.12347    299.20819    300.34143    301.59854    302.87161    304.06473    304.86523    305.41953    305.74139    305.92697
     1.875000     291.99719    292.86151    293.85101    295.14893    296.71722    298.11472    299.20547    300.34045    301.59747    302.87186    304.06625    304.87109    305.42618    305.74695    305.93579
     1.900000     291.97913    292.83780    293.82162    295.11731    296.69565    298.10599    299.20273    300.33942    301.59622    302.87152    304.06705    304.87634    305.43231    305.75208    305.94427
     1.925000     291.96182    292.81476    293.79263    295.08539    296.67349    298.09726    299.20004    300.33835    301.59479    302.87076    304.06720    304.88095    305.43799    305.75684    305.95245
     1.950000     291.94537    292.79248    293.76401    295.05313    296.65067    298.08847    299.19736    300.33716    301.59314    302.86948    304.06665    304.88498    305.44321    305.76123    305.96039
     1.975000     291.92981    292.77087    293.73575    295.02051    296.62701    298.07956    299.19464    300.33585    301.59125    302.86777    304.06549    304.88846    305.44803    305.76529    305.96805
     2.000000     291.91495    292.74991    293.70782    294.98752    296.60242    298.07043    299.19183    300.33432    301.58905    302.86551    304.06366    304.89136    305.45242    305.76901    305.97546
     2.025000     291.89938    292.72958    293.68097    294.95508    296.57718    298.06094    299.18863    300.33228    301.58630    302.86249    304.06091    304.89334    305.45605    305.77216    305.98239
     2.050000     291.88248    292.70929    293.65482    294.92319    296.55170    298.05133    299.18530    300.32990    301.58319    302.85889    304.05753    304.89478    305.45932    305.77499    305.98904
     2.075000     291.86618    292.68930    293.62897    294.89111    296.52527    298.04129    299.18167    300.32697    301.57941    302.85452    304.05328    304.89557    305.46216    305.77747    305.99542
     2.100000     291.85016    292.66956    293.60339    294.85895    296.49792    298.03076    299.17767    300.32339    301.57483    302.84927    304.04822    304.89566    305.46457    305.77963    306.00150
     2.125000     291.83405    292.64999    293.57819    294.82681    296.46973    298.01965    299.17319    300.31897    301.56924    302.84296    304.04214    304.89508    305.46649    305.78143    306.00723
     2.150000     291.81723    292.63046    293.55334    294.79495    296.44086    298.00793    299.16824    300.31366    301.56256    302.83551    304.03510    304.89374    305.46799    305.78290    306.01266
     2.175000     291.79968    292.61081    293.52878    294.76321    296.41113    297.99539    299.16269    300.30734    301.55463    302.82681    304.02695    304.89169    305.46902    305.78409    306.01779
     2.200000     291.78116    292.59094    293.50458    294.73184    296.38086    297.98215    299.15659    300.29999    301.54547    302.81689    304.01779    304.88898    305.46970    305.78497    306.02264
     2.225000     291.76212    292.57098    293.48059    294.70078    296.34998    297.96820    299.15002    300.29172    301.53513    302.80582    304.00772    304.88571    305.47009    305.78564    306.02737
     2.250000     291.74304    292.55109    293.45694    294.67007    296.31848    297.95358    299.14301    300.28253    301.52356    302.79364    303.99689    304.88196    305.47031    305.78616    306.03198
     2.275000     291.72433    292.53134    293.43353    294.63959    296.28629    297.93820    299.13556    300.27252    301.51086    302.78033    303.98529    304.87790    305.47040    305.78659    306.03653
     2.300000     291.70682    292.51202    293.41034    294.60922    296.25330    297.92200    299.12775    300.26163    301.49701    302.76596    303.97302    304.87350    305.47040    305.78696    306.04114
     2.325000     291.69061    292.49319    293.38733    294.57889    296.21927    297.90479    299.11948    300.24988    301.48187    302.75049    303.96005    304.86884    305.47040    305.78732    306.04581
     2.350000     291.67581    292.47501    293.36453    294.54849    296.18417    297.88644    299.11078    300.23721    301.46539    302.73370    303.94632    304.86392    305.47043    305.78769    306.05057
     2.375000     291.66226    292.45740    293.34189    294.51797    296.14786    297.86682    299.10153    300.22360    301.44751    302.71555    303.93176    304.85873    305.47043    305.78806    306.05545
     2.400000     291.64999    292.44040    293.31937    294.48718    296.11020    297.84561    299.09158    300.20889    301.42807    302.69586    303.91626    304.85318    305.47040    305.78845    306.06039
     2.425000     291.63879    292.42419    293.29724    294.45648    296.07153    297.82294    299.08102    300.19318    301.40704    302.67468    303.89987    304.84732    305.47040    305.78885    306.06552
     2.450000     291.62833    292.40857    293.27530    294.42572    296.03177    297.79861    299.06970    300.17642    301.38437    302.65179    303.88239    304.84113    305.47037    305.78931    306.07074
     2.475000     291.61850    292.39337    293.25366    294.39496    295.99109    297.77264    299.05759    300.15860    301.36005    302.62717    303.86389    304.83456    305.47037    305.78979    306.07614
     2.500000     291.60901    292.37866    293.23239    294.36438    295.94977    297.74506    299.04468    300.13977    301.33411    302.60083    303.84430    304.82764    305.47037    305.79034    306.08167
     2.525000     291.59674    292.36343    293.21149    294.33481    295.90897    297.71567    299.03033    300.11972    301.30643    302.57254    303.82336    304.81998    305.46994    305.79062    306.08725
     2.550000     291.58292    292.34772    293.19089    294.30591    295.86853    297.68521    299.01514    300.09882    301.27725    302.54251    303.80130    304.81195    305.46951    305.79099    306.09302
     2.575000     291.56842    292.33176    293.17047    294.27747    295.82819    297.65353    298.99905    300.07706    301.24661    302.51077    303.77817    304.80359    305.46906    305.79138    306.09900
     2.600000     291.55307    292.31546    293.15024    294.24945    295.78818    297.62082    298.98212    300.05457    301.21463    302.47739    303.75394    304.79486    305.46857    305.79190    306.10519
     2.625000     291.53723    292.29895    293.13016    294.22195    295.74850    297.58716    298.96436    300.03137    301.18137    302.44238    303.72858    304.78574    305.46805    305.79248    306.11157
     2.650000     291.52075    292.28207    293.11011    294.19476    295.70917    297.55249    298.94565    300.00745    301.14682    302.40567    303.70203    304.77618    305.46744    305.79312    306.11813
     2.675000     291.50348    292.26480    293.09018    294.16809    295.67041    297.51709    298.92603    299.98288    301.11099    302.36725    303.67419    304.76614    305.46674    305.79379    306.12485
     2.700000     291.48523    292.24701    293.07019    294.14178    295.63217    297.48087    298.90527    299.95755    301.07394    302.32706    303.64499    304.75546    305.46585    305.79449    306.13165
     2.725000     291.46628    292.22876    293.05011    294.11581    295.59445    297.44391    298.88339    299.93146    301.03561    302.28503    303.61426    304.74411    305.46472    305.79520    306.13849
     2.750000     291.44659    292.21005    293.02997    294.09009    295.55728    297.40625    298.86029    299.90463    300.99606    302.24112    303.58188    304.73190    305.46329    305.79584    306.14529
     2.775000     291.42633    292.19089    293.00961    294.06461    295.52063    297.36792    298.83588    299.87695    300.95526    302.19525    303.54779    304.71881    305.46152    305.79648    306.15204
     2.800000     291.40598    292.17142    292.98914    294.03925    295.48431    297.32880    298.81006    299.84842    300.91321    302.14740    303.51178    304.70474    305.45935    305.79703    306.15872
     2.825000     291.38589    292.15173    292.96841    294.01385    295.44821    297.28882    298.78271    299.81900    300.86993    302.09750    303.47382    304.68951    305.45673    305.79749    306.16525
     2.850000     291.36642    292.13208    292.94751    293.98837    295.41229    297.24802    298.75385    299.78870    300.82556    302.04568    303.43393    304.67319    305.45370    305.79788    306.17169
     2.875000     291.34799    292.11258    292.92639    293.96274    295.37634    297.20624    298.72339    299.75745    300.78018    301.99200    303.39206    304.65570    305.45020    305.79819    306.17804
     2.900000     291.33002    292.09320    292.90518    293.93707    295.34058    297.16379    298.69150    299.72549    300.73401    301.93671    303.34839    304.63708    305.44623    305.79846    306.18430
     2.925000     291.31195    292.07385    292.88388    293.91138    295.30502    297.12076    298.65814    299.69284    300.68723    301.88000    303.30295    304.61743    305.44183    305.79865    306.19049
     2.950000     291.29367    292.05432    292.86252    293.88574    295.26984    297.07730    298.62344    299.65958    300.64008    301.82214    303.25601    304.59680    305.43698    305.79883    306.19669
     2.975000     291.27582    292.03506    292.84116    293.86020    295.23505    297.03363    298.58679    299.62659    300.59286    301.76349    303.20779    304.57532    305.43179    305.79901    306.20294
     3.000000     291.25818    292.01587    292.81979    293.83475    295.20068    296.98993    298.54913    299.59314    300.54578    301.70435    303.15860    304.55313    305.42630    305.79922    306.20932
     3.025000     291.23810    291.99579    292.79810    293.80927    295.16745    296.94684    298.51010    299.55890    300.49902    301.64511    303.10849    304.52997    305.42007    305.79938    306.21594
     3.050000     291.21735    291.97537    292.77649    293.78424    295.13507    296.90424    298.47037    299.52438    300.45285    301.58600    303.05795    304.50641    305.41367    305.79962    306.22284
     3.075000     291.19638    291.95490    292.75497    293.75952    295.10333    296.86206    298.43005    299.48981    300.40747    301.52734    303.00723    304.48264    305.40710    305.79999    306.22995
     3.100000     291.17593    291.93442    292.73340    293.73492    295.07193    296.82004    298.38916    299.45508    300.36304    301.46933    302.95654    304.45880    305.40042    305.80054    306.23743
     3.125000     291.15594    291.91412    292.71201    293.71066    295.04120    296.77850    298.34787    299.42044    300.31967    301.41232    302.90625    304.43497    305.39365    305.80127    306.24521
     3.150000     291.13583    291.89383    292.69070    293.68661    295.01096    296.73734    298.30615    299.38583    300.27750    301.35651    302.85651    304.41135    305.38687    305.80215    306.25330
     3.175000     291.11581    291.87360    292.66956    293.66296    294.98132    296.69672    298.26413    299.35144    300.23676    301.30222    302.80768    304.38809    305.38007    305.80328    306.26175
     3.200000     291.09589    291.85345    292.64856    293.63962    294.95230    296.65662    298.22189    299.31735    300.19754    301.24969    302.76007    304.36539    305.37335    305.80457    306.27051
     3.225000     291.07596    291.83337    292.62772    293.61655    294.92380    296.61700    298.17950    299.28363    300.16006    301.19925    302.71399    304.34341    305.36676    305.80609    306.27966
     3.250000     291.05615    291.81345    292.60709    293.59390    294.89590    296.57797    298.13712    299.25043    300.12451    301.15118    302.66983    304.32239    305.36035    305.80786    306.28912
     3.275000     291.03610    291.79346    292.58658    293.57156    294.86856    296.53949    298.09482    299.21786    300.09109    301.10580    302.62781    304.30237    305.35416    305.80988    306.29892
     3.300000     291.01602    291.77350    292.56625    293.54953    294.84167    296.50153    298.05264    299.18610    300.05994    301.06335    302.58820    304.28360    305.34821    305.81213    306.30899
     3.325000     290.99567    291.75357    292.54608    293.52780    294.81531    296.46411    298.01074    299.15521    300.03125    301.02411    302.55127    304.26611    305.34250    305.81464    306.31927
     3.350000     290.97427    291.73337    292.52606    293.50650    294.78958    296.42737    297.96921    299.12543    300.00519    300.98828    302.51733    304.25012    305.33713    305.81738    306.32977
     3.375000     290.95316    291.71323    292.50616    293.48541    294.76419    296.39102    297.92804    299.09677    299.98187    300.95615    302.48666    304.23575    305.33209    305.82040    306.34042
     3.400000     290.93195    291.69305    292.48636    293.46463    294.73926    296.35522    297.88733    299.06949    299.96146    300.92792    302.45953    304.22321    305.32748    305.82376    306.35123
     3.425000     290.91061    291.67288    292.46671    293.44415    294.71478    296.31998    297.84732    299.04370    299.94415    300.90390    302.43637    304.21280    305.32346    305.82739    306.36224
     3.450000     290.88922    291.65274    292.44727    293.42407    294.69092    296.28549    297.80807    299.01968    299.93018    300.88437    302.41751    304.20477    305.32007    305.83139    306.37350
     3.475000     290.86795    291.63266    292.42792    293.40430    294.66760    296.25168    297.76981    298.99765    299.91971    300.86957    302.40329    304.19940    305.31747    305.83585    306.38504
     3.500000     290.84698    291.61282    292.40884    293.38495    294.64493    296.21869    297.73273    298.97791    299.91302    300.85980    302.39413    304.19693    305.31583    305.84082    306.39688
     3.525000     290.82553    291.59283    292.38974    293.36575    294.62268    296.18707    297.69751    298.96036    299.91010    300.85553    302.39044    304.19751    305.31522    305.84665    306.40945
     3.550000     290.80365    291.57294    292.37106    293.34723    294.60150    296.15677    297.66409    298.94571    299.91141    300.85684    302.39255    304.20157    305.31595    305.85315    306.42245