Triton                     1  1 trit  ( 39.892,-102.670) (  26,  28) ( 40.009,-102.667) 1311.3 meters
     0.025000       0.00528      0.00523      0.00519      0.00513      0.00504      0.00487      0.00465      0.00438      0.00406      0.00371      0.00335      0.00304      0.00304      0.00316      0.00337
     0.050000       0.00529      0.00524      0.00519      0.00513      0.00503      0.00486      0.00464      0.00436      0.00404      0.00369      0.00334      0.00304      0.00305      0.00317      0.00337
     0.075000       0.00530      0.00524      0.00520      0.00513      0.00503      0.00485      0.00463      0.00435      0.00402      0.00367      0.00334      0.00305      0.00306      0.00318      0.00338
     0.100000       0.00531      0.00525      0.00520      0.00514      0.00502      0.00485      0.00462      0.00433      0.00400      0.00366      0.00333      0.00305      0.00307      0.00319      0.00338
     0.125000       0.00531      0.00525      0.00520      0.00514      0.00502      0.00484      0.00460      0.00432      0.00399      0.00364      0.00332      0.00306      0.00307      0.00320      0.00338
     0.150000       0.00532      0.00526      0.00520      0.00514      0.00502      0.00483      0.00460      0.00431      0.00397      0.00363      0.00332      0.00306      0.00308      0.00320      0.00339
     0.175000       0.00532      0.00526      0.00521      0.00514      0.00501      0.00483      0.00459      0.00429      0.00396      0.00362      0.00331      0.00307      0.00309      0.00321      0.00339
     0.200000       0.00532      0.00526      0.00521      0.00514      0.00501      0.00482      0.00458      0.00428      0.00394      0.00361      0.00331      0.00307      0.00309      0.00322      0.00339
     0.225000       0.00532      0.00526      0.00521      0.00514      0.00501      0.00482      0.00457      0.00427      0.00393      0.00360      0.00330      0.00308      0.00310      0.00323      0.00339
     0.250000       0.00532      0.00527      0.00521      0.00515      0.00501      0.00482      0.00457      0.00427      0.00392      0.00359      0.00330      0.00308      0.00310      0.00323      0.00339
     0.275000       0.00533      0.00527      0.00521      0.00515      0.00501      0.00481      0.00456      0.00426      0.00391      0.00358      0.00329      0.00308      0.00311      0.00324      0.00339
     0.300000       0.00533      0.00527      0.00522      0.00515      0.00501      0.00481      0.00456      0.00425      0.00390      0.00358      0.00329      0.00309      0.00311      0.00324      0.00340
     0.325000       0.00533      0.00527      0.00522      0.00515      0.00501      0.00481      0.00456      0.00425      0.00389      0.00357      0.00329      0.00309      0.00312      0.00325      0.00340
     0.350000       0.00533      0.00527      0.00522      0.00515      0.00501      0.00481      0.00455      0.00424      0.00389      0.00357      0.00329      0.00310      0.00312      0.00325      0.00340
     0.375000       0.00533      0.00527      0.00522      0.00516      0.00501      0.00481      0.00455      0.00424      0.00388      0.00356      0.00329      0.00310      0.00313      0.00326      0.00340
     0.400000       0.00533      0.00528      0.00522      0.00516      0.00501      0.00481      0.00455      0.00424      0.00388      0.00356      0.00328      0.00311      0.00313      0.00326      0.00340
     0.425000       0.00533      0.00528      0.00523      0.00516      0.00501      0.00481      0.00455      0.00424      0.00388      0.00356      0.00328      0.00311      0.00314      0.00327      0.00340
     0.450000       0.00533      0.00528      0.00523      0.00516      0.00501      0.00481      0.00455      0.00424      0.00388      0.00356      0.00328      0.00312      0.00314      0.00327      0.00340
     0.475000       0.00533      0.00528      0.00523      0.00517      0.00501      0.00481      0.00456      0.00424      0.00388      0.00356      0.00329      0.00312      0.00314      0.00327      0.00340
     0.500000       0.00533      0.00528      0.00523      0.00517      0.00501      0.00481      0.00456      0.00425      0.00388      0.00356      0.00329      0.00312      0.00315      0.00328      0.00340
     0.525000       0.00533      0.00528      0.00523      0.00517      0.00502      0.00481      0.00456      0.00425      0.00388      0.00356      0.00329      0.00313      0.00315      0.00328      0.00340
     0.550000       0.00533      0.00528      0.00523      0.00517      0.00502      0.00482      0.00456      0.00425      0.00389      0.00357      0.00329      0.00313      0.00315      0.00328      0.00340
     0.575000       0.00533      0.00529      0.00524      0.00518      0.00502      0.00482      0.00457      0.00426      0.00389      0.00357      0.00329      0.00313      0.00316      0.00328      0.00340
     0.600000       0.00533      0.00529      0.00524      0.00518      0.00502      0.00482      0.00457      0.00426      0.00390      0.00357      0.00329      0.00314      0.00316      0.00329      0.00340
     0.625000       0.00533      0.00529      0.00524      0.00518      0.00503      0.00482      0.00457      0.00427      0.00390      0.00358      0.00329      0.00314      0.00316      0.00329      0.00340
     0.650000       0.00533      0.00529      0.00524      0.00518      0.00503      0.00483      0.00458      0.00427      0.00391      0.00358      0.00330      0.00315      0.00317      0.00329      0.00340
     0.675000       0.00533      0.00529      0.00524      0.00518      0.00503      0.00483      0.00458      0.00428      0.00391      0.00358      0.00330      0.00315      0.00317      0.00329      0.00339
     0.700000       0.00533      0.00529      0.00524      0.00518      0.00503      0.00483      0.00459      0.00428      0.00392      0.00359      0.00330      0.00315      0.00317      0.00329      0.00339
     0.725000       0.00533      0.00529      0.00524      0.00519      0.00504      0.00484      0.00459      0.00429      0.00392      0.00359      0.00331      0.00316      0.00317      0.00329      0.00339
     0.750000       0.00533      0.00529      0.00524      0.00519      0.00504      0.00484      0.00460      0.00429      0.00393      0.00360      0.00331      0.00316      0.00318      0.00330      0.00339
     0.775000       0.00532      0.00529      0.00524      0.00519      0.00504      0.00484      0.00460      0.00430      0.00394      0.00360      0.00331      0.00316      0.00318      0.00330      0.00339
     0.800000       0.00532      0.00529      0.00524      0.00519      0.00504      0.00484      0.00460      0.00431      0.00394      0.00361      0.00331      0.00317      0.00318      0.00330      0.00339
     0.825000       0.00532      0.00529      0.00524      0.00519      0.00504      0.00485      0.00461      0.00431      0.00395      0.00361      0.00332      0.00317      0.00319      0.00330      0.00339
     0.850000       0.00532      0.00528      0.00524      0.00519      0.00505      0.00485      0.00461      0.00432      0.00396      0.00362      0.00332      0.00317      0.00319      0.00330      0.00338
     0.875000       0.00532      0.00528      0.00524      0.00519      0.00505      0.00485      0.00462      0.00432      0.00396      0.00363      0.00332      0.00318      0.00319      0.00330      0.00338
     0.900000       0.00532      0.00528      0.00524      0.00519      0.00505      0.00485      0.00462      0.00433      0.00397      0.00363      0.00333      0.00318      0.00319      0.00330      0.00338
     0.925000       0.00532      0.00528      0.00524      0.00519      0.00505      0.00485      0.00462      0.00433      0.00397      0.00364      0.00333      0.00318      0.00320      0.00330      0.00338
     0.950000       0.00532      0.00528      0.00524      0.00519      0.00505      0.00485      0.00462      0.00434      0.00398      0.00364      0.00333      0.00319      0.00320      0.00330      0.00337
     0.975000       0.00531      0.00528      0.00524      0.00519      0.00505      0.00486      0.00463      0.00434      0.00398      0.00364      0.00334      0.00319      0.00320      0.00330      0.00337
     1.000000       0.00531      0.00528      0.00524      0.00519      0.00505      0.00486      0.00463      0.00434      0.00399      0.00365      0.00334      0.00319      0.00321      0.00330      0.00337
     1.025000       0.00531      0.00528      0.00524      0.00519      0.00505      0.00486      0.00463      0.00435      0.00399      0.00365      0.00334      0.00320      0.00321      0.00330      0.00337
     1.050000       0.00531      0.00528      0.00524      0.00518      0.00505      0.00486      0.00463      0.00435      0.00400      0.00366      0.00335      0.00320      0.00321      0.00330      0.00336
     1.075000       0.00531      0.00527      0.00524      0.00518      0.00505      0.00486      0.00463      0.00435      0.00400      0.00366      0.00335      0.00321      0.00321      0.00330      0.00336
     1.100000       0.00530      0.00527      0.00524      0.00518      0.00505      0.00486      0.00463      0.00436      0.00401      0.00366      0.00335      0.00321      0.00322      0.00330      0.00335
     1.125000       0.00530      0.00527      0.00523      0.00518      0.00505      0.00485      0.00463      0.00436      0.00401      0.00367      0.00335      0.00321      0.00322      0.00330      0.00335
     1.150000       0.00530      0.00527      0.00523      0.00518      0.00505      0.00485      0.00463      0.00436      0.00401      0.00367      0.00336      0.00322      0.00322      0.00330      0.00335
     1.175000       0.00530      0.00527      0.00523      0.00518      0.00505      0.00485      0.00463      0.00436      0.00401      0.00367      0.00336      0.00322      0.00323      0.00330      0.00334
     1.200000       0.00529      0.00527      0.00523      0.00517      0.00505      0.00485      0.00463      0.00436      0.00402      0.00367      0.00336      0.00322      0.00323      0.00330      0.00334
     1.225000       0.00529      0.00526      0.00523      0.00517      0.00504      0.00485      0.00463      0.00436      0.00402      0.00368      0.00336      0.00323      0.00323      0.00330      0.00333
     1.250000       0.00529      0.00526      0.00522      0.00517      0.00504      0.00485      0.00463      0.00436      0.00402      0.00368      0.00336      0.00323      0.00323      0.00330      0.00333
     1.275000       0.00529      0.00526      0.00522      0.00516      0.00504      0.00484      0.00463      0.00436      0.00402      0.00368      0.00337      0.00324      0.00324      0.00330      0.00332
     1.300000       0.00528      0.00526      0.00522      0.00516      0.00504      0.00484      0.00462      0.00436      0.00402      0.00368      0.00337      0.00324      0.00324      0.00330      0.00331
     1.325000       0.00528      0.00525      0.00522      0.00516      0.00503      0.00484      0.00462      0.00436      0.00402      0.00368      0.00337      0.00324      0.00324      0.00330      0.00331
     1.350000       0.00528      0.00525      0.00521      0.00515      0.00503      0.00483      0.00462      0.00436      0.00402      0.00368      0.00337      0.00325      0.00325      0.00330      0.00330
     1.375000       0.00527      0.00525      0.00521      0.00515      0.00503      0.00483      0.00462      0.00435      0.00402      0.00368      0.00337      0.00325      0.00325      0.00330      0.00329
     1.400000       0.00527      0.00524      0.00521      0.00515      0.00502      0.00482      0.00461      0.00435      0.00402      0.00368      0.00337      0.00325      0.00325      0.00330      0.00329
     1.425000       0.00527      0.00524      0.00520      0.00514      0.00502      0.00482      0.00461      0.00435      0.00402      0.00368      0.00338      0.00326      0.00326      0.00329      0.00328
     1.450000       0.00527      0.00524      0.00520      0.00514      0.00501      0.00482      0.00460      0.00434      0.00401      0.00368      0.00338      0.00326      0.00326      0.00329      0.00327
     1.475000       0.00526      0.00524      0.00520      0.00514      0.00501      0.00481      0.00460      0.00434      0.00401      0.00368      0.00338      0.00327      0.00326      0.00329      0.00326
     1.500000       0.00526      0.00523      0.00519      0.00513      0.00500      0.00481      0.00460      0.00434      0.00401      0.00368      0.00338      0.00327      0.00326      0.00329      0.00325
     1.525000       0.00525      0.00523      0.00519      0.00513      0.00500      0.00480      0.00459      0.00433      0.00401      0.00368      0.00338      0.00327      0.00327      0.00329      0.00324
     1.550000       0.00525      0.00523      0.00519      0.00512      0.00500      0.00480      0.00459      0.00433      0.00401      0.00368      0.00338      0.00328      0.00327      0.00329      0.00323
     1.575000       0.00525      0.00522      0.00518      0.00512      0.00499      0.00479      0.00458      0.00433      0.00400      0.00368      0.00338      0.00328      0.00327      0.00328      0.00322
     1.600000       0.00524      0.00522      0.00518      0.00512      0.00499      0.00479      0.00458      0.00432      0.00400      0.00368      0.00339      0.00329      0.00327      0.00328      0.00321
     1.625000       0.00524      0.00521      0.00518      0.00511      0.00498      0.00478      0.00458      0.00432      0.00400      0.00368      0.00339      0.00329      0.00327      0.00328      0.00319
     1.650000       0.00524      0.00521      0.00517      0.00511      0.00498      0.00478      0.00457      0.00432      0.00400      0.00368      0.00339      0.00329      0.00327      0.00328      0.00318
     1.675000       0.00523      0.00521      0.00517      0.00510      0.00497      0.00478      0.00457      0.00432      0.00400      0.00368      0.00340      0.00330      0.00328      0.00327      0.00317
     1.700000       0.00523      0.00520      0.00517      0.00510      0.00497      0.00477      0.00457      0.00432      0.00400      0.00368      0.00340      0.00330      0.00328      0.00327      0.00316
     1.725000       0.00523      0.00520      0.00516      0.00510      0.00497      0.00477      0.00456      0.00431      0.00400      0.00368      0.00340      0.00331      0.00328      0.00327      0.00314
     1.750000       0.00522      0.00520      0.00516      0.00509      0.00496      0.00477      0.00456      0.00431      0.00400      0.00368      0.00341      0.00331      0.00328      0.00326      0.00313
     1.775000       0.00522      0.00519      0.00516      0.00509      0.00496      0.00476      0.00456      0.00431      0.00400      0.00369      0.00341      0.00331      0.00328      0.00326      0.00312
     1.800000       0.00521      0.00519      0.00515      0.00509      0.00496      0.00476      0.00456      0.00431      0.00400      0.00369      0.00342      0.00332      0.00328      0.00325      0.00311
     1.825000       0.00521      0.00519      0.00515      0.00508      0.00495      0.00476      0.00456      0.00431      0.00401      0.00369      0.00342      0.00332      0.00328      0.00325      0.00309
     1.850000       0.00521      0.00518      0.00514      0.00508      0.00495      0.00475      0.00455      0.00431      0.00401      0.00370      0.00343      0.00332      0.00328      0.00325      0.00308
     1.875000       0.00520      0.00518      0.00514      0.00508      0.00495      0.00475      0.00455      0.00431      0.00401      0.00370      0.00343      0.00333      0.00328      0.00324      0.00306
     1.900000       0.00520      0.00517      0.00514      0.00507      0.00494      0.00475      0.00455      0.00431      0.00401      0.00370      0.00344      0.00333      0.00328      0.00324      0.00305
     1.925000       0.00519      0.00517      0.00513      0.00507      0.00494      0.00475      0.00455      0.00431      0.00401      0.00371      0.00344      0.00334      0.00328      0.00323      0.00304
     1.950000       0.00519      0.00517      0.00513      0.00506      0.00494      0.00475      0.00455      0.00431      0.00402      0.00371      0.00345      0.00334      0.00328      0.00323      0.00302
     1.975000       0.00519      0.00516      0.00512      0.00506      0.00494      0.00474      0.00455      0.00431      0.00402      0.00372      0.00346      0.00334      0.00328      0.00322      0.00300
     2.000000       0.00518      0.00516      0.00512      0.00506      0.00493      0.00474      0.00455      0.00431      0.00402      0.00372      0.00346      0.00335      0.00328      0.00322      0.00299
     2.025000       0.00518      0.00515      0.00512      0.00505      0.00493      0.00474      0.00455      0.00431      0.00403      0.00373      0.00347      0.00335      0.00328      0.00321      0.00297
     2.050000       0.00517      0.00515      0.00511      0.00505      0.00493      0.00474      0.00455      0.00432      0.00403      0.00373      0.00348      0.00336      0.00328      0.00320      0.00295
     2.075000       0.00517      0.00514      0.00511      0.00505      0.00493      0.00474      0.00455      0.00432      0.00403      0.00374      0.00348      0.00336      0.00328      0.00320      0.00294
     2.100000       0.00516      0.00514      0.00510      0.00504      0.00493      0.00474      0.00455      0.00432      0.00404      0.00374      0.00349      0.00336      0.00328      0.00319      0.00292
     2.125000       0.00516      0.00514      0.00510      0.00504      0.00492      0.00474      0.00455      0.00432      0.00404      0.00375      0.00350      0.00337      0.00327      0.00318      0.00290
     2.150000       0.00516      0.00513      0.00510      0.00504      0.00492      0.00474      0.00455      0.00432      0.00405      0.00376      0.00350      0.00337      0.00327      0.00318      0.00288
     2.175000       0.00515      0.00513      0.00509      0.00503      0.00492      0.00474      0.00455      0.00433      0.00405      0.00376      0.00351      0.00337      0.00327      0.00317      0.00286
     2.200000       0.00515      0.00512      0.00509      0.00503      0.00492      0.00474      0.00455      0.00433      0.00406      0.00377      0.00352      0.00337      0.00327      0.00316      0.00284
     2.225000       0.00514      0.00512      0.00508      0.00502      0.00492      0.00474      0.00455      0.00433      0.00406      0.00378      0.00352      0.00338      0.00327      0.00315      0.00282
     2.250000       0.00514      0.00511      0.00508      0.00502      0.00491      0.00474      0.00455      0.00433      0.00407      0.00378      0.00353      0.00338      0.00327      0.00315      0.00280
     2.275000       0.00513      0.00511      0.00507      0.00502      0.00491      0.00474      0.00455      0.00434      0.00407      0.00379      0.00354      0.00338      0.00326      0.00314      0.00278
     2.300000       0.00513      0.00510      0.00507      0.00501      0.00491      0.00474      0.00455      0.00434      0.00408      0.00380      0.00355      0.00339      0.00326      0.00313      0.00276
     2.325000       0.00512      0.00510      0.00507      0.00501      0.00491      0.00474      0.00456      0.00435      0.00409      0.00381      0.00355      0.00339      0.00326      0.00312      0.00274
     2.350000       0.00512      0.00510      0.00506      0.00501      0.00491      0.00474      0.00456      0.00435      0.00409      0.00382      0.00356      0.00339      0.00325      0.00311      0.00272
     2.375000       0.00512      0.00509      0.00506      0.00500      0.00490      0.00474      0.00456      0.00436      0.00410      0.00383      0.00357      0.00339      0.00325      0.00310      0.00269
     2.400000       0.00511      0.00509      0.00505      0.00500      0.00490      0.00474      0.00456      0.00436      0.00411      0.00384      0.00358      0.00340      0.00325      0.00309      0.00267
     2.425000       0.00511      0.00508      0.00505      0.00499      0.00490      0.00474      0.00456      0.00436      0.00412      0.00384      0.00359      0.00340      0.00324      0.00308      0.00264
     2.450000       0.00510      0.00508      0.00504      0.00499      0.00490      0.00474      0.00457      0.00437      0.00413      0.00385      0.00360      0.00340      0.00324      0.00306      0.00262
     2.475000       0.00510      0.00507      0.00504      0.00499      0.00490      0.00474      0.00457      0.00438      0.00414      0.00386      0.00360      0.00340      0.00323      0.00305      0.00259
     2.500000       0.00509      0.00507      0.00503      0.00498      0.00489      0.00474      0.00457      0.00438      0.00414      0.00387      0.00361      0.00340      0.00323      0.00304      0.00257
     2.525000       0.00509      0.00506      0.00503      0.00498      0.00489      0.00474      0.00458      0.00439      0.00415      0.00389      0.00362      0.00340      0.00322      0.00303      0.00254
     2.550000       0.00508      0.00506      0.00503      0.00497      0.00489      0.00474      0.00458      0.00439      0.00416      0.00390      0.00363      0.00341      0.00322      0.00301      0.00252
     2.575000       0.00508      0.00505      0.00502      0.00497      0.00488      0.00475      0.00458      0.00440      0.00417      0.00391      0.00364      0.00341      0.00321      0.00300      0.00249
     2.600000       0.00507      0.00505      0.00502      0.00496      0.00488      0.00475      0.00458      0.00440      0.00418      0.00392      0.00365      0.00341      0.00321      0.00298      0.00246
     2.625000       0.00507      0.00504      0.00501      0.00496      0.00488      0.00475      0.00459      0.00441      0.00419      0.00393      0.00366      0.00341      0.00320      0.00297      0.00244
     2.650000       0.00506      0.00504      0.00501      0.00496      0.00488      0.00475      0.00459      0.00442      0.00420      0.00394      0.00367      0.00341      0.00320      0.00295      0.00241
     2.675000       0.00506      0.00504      0.00500      0.00495      0.00487      0.00475      0.00459      0.00442      0.00421      0.00396      0.00368      0.00341      0.00319      0.00293      0.00238
     2.700000       0.00505      0.00503      0.00500      0.00495      0.00487      0.00475      0.00460      0.00443      0.00422      0.00397      0.00369      0.00341      0.00318      0.00292      0.00235
     2.725000       0.00505      0.00503      0.00499      0.00494      0.00487      0.00475      0.00460      0.00444      0.00423      0.00398      0.00370      0.00341      0.00318      0.00290      0.00233
     2.750000       0.00504      0.00502      0.00499      0.00494      0.00486      0.00475      0.00460      0.00444      0.00425      0.00400      0.00371      0.00342      0.00317      0.00288      0.00230
     2.775000       0.00504      0.00502      0.00498      0.00493      0.00486      0.00475      0.00461      0.00445      0.00426      0.00401      0.00372      0.00342      0.00316      0.00287      0.00227
     2.800000       0.00504      0.00501      0.00498      0.00493      0.00486      0.00475      0.00461      0.00446      0.00427      0.00403      0.00373      0.00342      0.00316      0.00285      0.00225
     2.825000       0.00503      0.00501      0.00497      0.00493      0.00485      0.00475      0.00461      0.00446      0.00428      0.00404      0.00374      0.00342      0.00315      0.00283      0.00222
     2.850000       0.00503      0.00500      0.00497      0.00492      0.00485      0.00475      0.00462      0.00447      0.00429      0.00405      0.00375      0.00342      0.00314      0.00281      0.00220
     2.875000       0.00502      0.00500      0.00497      0.00492      0.00485      0.00474      0.00462      0.00448      0.00430      0.00407      0.00376      0.00342      0.00313      0.00280      0.00217
     2.900000       0.00502      0.00499      0.00496      0.00491      0.00484      0.00474      0.00462      0.00448      0.00431      0.00409      0.00378      0.00342      0.00313      0.00278      0.00215
     2.925000       0.00501      0.00499      0.00496      0.00491      0.00484      0.00474      0.00462      0.00449      0.00433      0.00410      0.00379      0.00343      0.00312      0.00276      0.00212
     2.950000       0.00501      0.00498      0.00495      0.00490      0.00484      0.00474      0.00463      0.00450      0.00434      0.00412      0.00380      0.00343      0.00311      0.00274      0.00210
     2.975000       0.00500      0.00498      0.00495      0.00490      0.00483      0.00474      0.00463      0.00450      0.00435      0.00413      0.00382      0.00343      0.00311      0.00272      0.00208
     3.000000       0.00500      0.00498      0.00494      0.00490      0.00483      0.00474      0.00463      0.00451      0.00436      0.00415      0.00383      0.00343      0.00310      0.00271      0.00206
     3.025000       0.00499      0.00497      0.00494      0.00489      0.00482      0.00474      0.00464      0.00452      0.00437      0.00416      0.00384      0.00343      0.00309      0.00269      0.00203
     3.050000       0.00499      0.00497      0.00494      0.00489      0.00482      0.00474      0.00464      0.00452      0.00438      0.00418      0.00385      0.00344      0.00308      0.00267      0.00201
     3.075000       0.00499      0.00496      0.00493      0.00488      0.00482      0.00473      0.00464      0.00453      0.00439      0.00419      0.00387      0.00344      0.00307      0.00265      0.00199
     3.100000       0.00498      0.00496      0.00493      0.00488      0.00481      0.00473      0.00464      0.00453      0.00440      0.00421      0.00388      0.00344      0.00307      0.00263      0.00197
     3.125000       0.00498      0.00495      0.00492      0.00488      0.00481      0.00473      0.00464      0.00454      0.00441      0.00422      0.00389      0.00344      0.00306      0.00261      0.00195
     3.150000       0.00497      0.00495      0.00492      0.00487      0.00481      0.00473      0.00464      0.00454      0.00442      0.00424      0.00390      0.00344      0.00305      0.00259      0.00193
     3.175000       0.00497      0.00494      0.00491      0.00487      0.00480      0.00472      0.00465      0.00455      0.00443      0.00425      0.00392      0.00344      0.00304      0.00257      0.00191
     3.200000       0.00496      0.00494      0.00491      0.00486      0.00480      0.00472      0.00465      0.00455      0.00444      0.00426      0.00393      0.00344      0.00303      0.00255      0.00189
     3.225000       0.00496      0.00494      0.00490      0.00486      0.00480      0.00472      0.00465      0.00456      0.00444      0.00427      0.00394      0.00344      0.00302      0.00252      0.00187
     3.250000       0.00495      0.00493      0.00490      0.00485      0.00479      0.00472      0.00465      0.00456      0.00445      0.00429      0.00394      0.00344      0.00301      0.00250      0.00185
     3.275000       0.00495      0.00493      0.00490      0.00485      0.00479      0.00471      0.00465      0.00456      0.00445      0.00429      0.00395      0.00344      0.00299      0.00248      0.00183
     3.300000       0.00495      0.00492      0.00489      0.00485      0.00478      0.00471      0.00465      0.00456      0.00446      0.00430      0.00396      0.00343      0.00298      0.00246      0.00181
     3.325000       0.00494      0.00492      0.00489      0.00484      0.00478      0.00471      0.00465      0.00457      0.00446      0.00431      0.00397      0.00343      0.00297      0.00244      0.00179
     3.350000       0.00494      0.00491      0.00488      0.00484      0.00478      0.00471      0.00465      0.00457      0.00447      0.00432      0.00397      0.00342      0.00295      0.00241      0.00177
     3.375000       0.00493      0.00491      0.00488      0.00483      0.00477      0.00470      0.00464      0.00457      0.00447      0.00432      0.00398      0.00342      0.00294      0.00239      0.00175
     3.400000       0.00493      0.00491      0.00488      0.00483      0.00477      0.00470      0.00464      0.00457      0.00447      0.00433      0.00398      0.00341      0.00292      0.00237      0.00174
     3.425000       0.00492      0.00490      0.00487      0.00483      0.00477      0.00470      0.00464      0.00457      0.00447      0.00433      0.00398      0.00341      0.00291      0.00235      0.00172
     3.450000       0.00492      0.00490      0.00487      0.00482      0.00476      0.00469      0.00464      0.00457      0.00447      0.00433      0.00398      0.00340      0.00289      0.00232      0.00171
     3.475000       0.00492      0.00489      0.00486      0.00482      0.00476      0.00469      0.00464      0.00457      0.00447      0.00433      0.00398      0.00339      0.00288      0.00230      0.00169
     3.500000       0.00491      0.00489      0.00486      0.00481      0.00476      0.00469      0.00464      0.00456      0.00447      0.00433      0.00397      0.00338      0.00286      0.00228      0.00168
     3.525000       0.00491      0.00489      0.00486      0.00481      0.00475      0.00469      0.00463      0.00456      0.00446      0.00433      0.00397      0.00336      0.00284      0.00226      0.00167
     3.550000       0.00490      0.00488      0.00485      0.00481      0.00475      0.00468      0.00463      0.00456      0.00446      0.00432      0.00396      0.00335      0.00282      0.00223      0.00166