0.025000
3.79083
4.00867
4.19149
4.40285
4.60096
4.65818
4.69354
4.69240
4.62260
4.43815
4.07094
3.42409
3.10057
2.50538
1.45439
0.050000
3.72786
4.07677
4.28649
4.49720
4.68465
4.72999
4.75035
4.73336
4.64797
4.44615
4.07079
3.42581
3.08816
2.48489
1.41832
0.075000
3.61648
4.11018
4.36428
4.58078
4.75895
4.79141
4.79594
4.76309
4.65951
4.43964
4.05582
3.41316
3.06155
2.45004
1.36853
0.100000
3.44467
4.06948
4.37711
4.60324
4.77188
4.79128
4.77897
4.72835
4.60518
4.36553
3.97240
3.33228
2.96638
2.34634
1.25029
0.125000
3.29982
4.03341
4.39503
4.63109
4.79037
4.79643
4.76694
4.69776
4.55338
4.29325
3.89039
3.25280
2.87261
2.24430
1.13441
0.150000
3.20459
4.02769
4.44022
4.68752
4.83692
4.82904
4.78212
4.69373
4.52693
4.24601
3.83285
3.19775
2.80365
2.16734
1.04466
0.175000
3.17477
4.06713
4.52469
4.78360
4.92266
4.90121
4.83639
4.72871
4.53864
4.23600
3.81201
3.17962
2.77188
2.12811
0.99341
0.200000
3.20667
4.15774
4.65644
4.92471
5.05340
5.01877
4.93636
4.80865
4.59428
4.27040
3.83465
3.20479
2.78402
2.13314
0.98752
0.225000
3.23323
4.23037
4.76608
5.04270
5.16261
5.11279
5.01247
4.86418
4.62505
4.27901
3.83083
3.20355
2.77003
2.11235
0.95699
0.250000
3.19686
4.22925
4.79932
5.08480
5.19505
5.12984
5.01132
4.84133
4.57700
4.20784
3.74605
3.12079
2.67462
2.01028
0.84601
0.275000
3.15709
4.21694
4.81771
5.11233
5.21171
5.13216
4.99496
4.80282
4.51245
4.11927
3.64379
3.02003
2.56146
1.89077
0.71844
0.300000
3.18032
4.26380
4.89316
5.19825
5.28699
5.19243
5.03677
4.82237
4.50540
4.08812
3.59855
2.97649
2.50565
1.82920
0.65013
0.325000
3.30246
4.40384
5.06031
5.37515
5.45489
5.34688
5.17194
4.93564
4.59208
4.15147
3.64690
3.02679
2.54441
1.86282
0.67854
0.350000
3.41686
4.53453
5.21744
5.54395
5.61538
5.49354
5.29949
5.04137
4.67151
4.20666
3.68749
3.06857
2.57515
1.88912
0.70093
0.375000
3.47959
4.61058
5.31969
5.66103
5.72427
5.58793
5.37535
5.09465
4.69868
4.20942
3.67494
3.05694
2.55281
1.86265
0.67179
0.400000
3.53993
4.69124
5.42709
5.78304
5.83977
5.68959
5.45880
5.15570
4.73309
4.21997
3.66990
3.05259
2.53839
1.84466
0.65229
0.425000
3.63626
4.80671
5.56973
5.94198
5.99362
5.82980
5.58050
5.25534
4.80680
4.26998
3.70448
3.08781
2.56397
1.86732
0.67468
0.450000
3.72927
4.92136
5.71479
6.10346
6.15136
5.97417
5.70728
5.36018
4.88609
4.32551
3.74454
3.12795
2.59495
1.89553
0.70350
0.475000
3.79192
5.00877
5.83199
6.24048
6.28551
6.09513
5.81033
5.44164
4.94216
4.35793
3.76135
3.14446
2.60245
1.90042
0.70894
0.500000
3.80575
5.04656
5.89951
6.32904
6.37229
6.16821
5.86590
5.47568
4.95080
4.34303
3.73032
3.11233
2.56184
1.85688
0.66603
0.525000
3.78471
5.04882
5.92956
6.38004
6.42095
6.20492
5.88507
5.47328
4.92362
4.29221
3.66367
3.04424
2.48536
1.77759
0.58734
0.550000
3.76175
5.05017
5.95687
6.42658
6.46748
6.23885
5.90161
5.46936
4.89544
4.24081
3.59655
2.97566
2.40896
1.69830
0.50919
0.575000
3.76608
5.07754
6.00862
6.49682
6.53762
6.29678
5.94329
5.49057
4.89289
4.21618
3.55626
2.93425
2.35998
1.64654
0.45924
0.600000
3.79716
5.12484
6.07890
6.58647
6.62713
6.37423
6.00487
5.53284
4.91202
4.21404
3.53882
2.91541
2.33398
1.61812
0.43288
0.625000
3.81979
5.16176
6.13866
6.66480
6.70635
6.44254
6.05735
5.56644
4.92307
4.20459
3.51454
2.88903
2.30088
1.58256
0.39955
0.650000
3.81242
5.16807
6.16610
6.71185
6.75394
6.47986
6.07960
5.56969
4.90494
4.16586
3.46142
2.83380
2.23900
1.51793
0.33782
0.675000
3.77886
5.14333
6.16027
6.72505
6.76947
6.48505
6.06980
5.54172
4.85664
4.09719
3.37874
2.74878
2.14704
1.42352
0.24670
0.700000
3.71878
5.08902
6.12288
6.70604
6.75355
6.45921
6.02930
5.48463
4.77875
4.00037
3.26784
2.63541
2.02683
1.30071
0.12768
0.725000
3.65483
5.02711
6.07702
6.67701
6.72753
6.42394
5.98034
5.41876
4.69383
3.89674
3.15083
2.51546
1.90017
1.17147
0.00261
0.750000
3.61940
4.99265
6.05568
6.67120
6.72495
6.41222
5.95540
5.37821
4.63527
3.82040
3.06147
2.42348
1.80160
1.07014
-0.09423
0.775000
3.62713
4.99869
6.07166
6.70255
6.75952
6.43808
5.96919
5.37682
4.61695
3.78536
3.01426
2.37372
1.74521
1.01112
-0.14868
0.800000
3.65834
5.02817
6.10998
6.75497
6.81575
6.48748
6.00657
5.40007
4.62436
3.77738
2.99460
2.35154
1.71679
0.97990
-0.17493
0.825000
3.69645
5.06543
6.15440
6.81260
6.87898
6.54323
6.05149
5.43184
4.64103
3.77960
2.98617
2.34005
1.69927
0.95949
-0.19032
0.850000
3.71806
5.08178
6.17731
6.84956
6.92164
6.57991
6.07757
5.44553
4.64043
3.76555
2.96176
2.31303
1.66588
0.92304
-0.22156
0.875000
3.69877
5.05701
6.15794
6.84391
6.92266
6.57528
6.06238
5.41820
4.60051
3.71285
2.89872
2.24733
1.59375
0.84738
-0.29200
0.900000
3.65186
5.00327
6.10843
6.80868
6.89382
6.54065
6.01838
5.36255
4.53260
3.63263
2.80931
2.15489
1.49452
0.74456
-0.38970
0.925000
3.60701
4.95195
6.05970
6.77240
6.86491
6.50653
5.97542
5.30944
4.46787
3.55659
2.72446
2.06709
1.39987
0.64601
-0.48281
0.950000
3.58899
4.92294
6.03152
6.75621
6.85622
6.49405
5.95402
5.27856
4.42631
3.50525
2.66505
2.00451
1.33059
0.57260
-0.55058
0.975000
3.58788
4.91456
6.02139
6.75730
6.86613
6.49985
5.95297
5.26808
4.40641
3.47638
2.62888
1.96595
1.28495
0.52279
-0.59446
1.000000
3.59486
4.91019
6.01422
6.76060
6.87879
6.50873
5.95565
5.26262
4.39274
3.45483
2.60060
1.93509
1.24723
0.48080
-0.63034
1.025000
3.58616
4.89208
5.99283
6.74883
6.87687
6.50448
5.94477
5.24462
4.36738
3.42255
2.56234
1.89426
1.19933
0.42845
-0.67648
1.050000
3.56147
4.85777
5.95339
6.71812
6.85564
6.48154
5.91535
5.20952
4.32545
3.37424
2.50867
1.83789
1.13599
0.36016
-0.73851
1.075000
3.53176
4.81702
5.90833
6.67947
6.82747
6.45143
5.88037
5.16807
4.27807
3.32177
2.45115
1.77755
1.06822
0.28715
-0.80551
1.100000
3.50496
4.77664
5.86362
6.63973
6.79806
6.42153
5.84521
5.12760
4.23259
3.27162
2.39648
1.71986
1.00290
0.21615
-0.87066
1.125000
3.47645
4.73814
5.81760
6.59889
6.76778
6.39043
5.80962
5.08735
4.18778
3.22280
2.34374
1.66380
0.93852
0.14582
-0.93518
1.150000
3.44979
4.69899
5.77139
6.55705
6.73593
6.35878
5.77303
5.04676
4.14324
3.17520
2.29220
1.60869
0.87500
0.07603
-0.99949
1.175000
3.43211
4.66903
5.73378
6.52160
6.71001
6.33353
5.74449
5.01406
4.10739
3.13618
2.25001
1.56279
0.82045
0.01472
-1.05568
1.200000
3.42117
4.64887
5.70465
6.49578
6.69349
6.31724
5.72468
4.99132
4.08164
3.10837
2.21911
1.52765
0.77627
-0.03648
-1.10190
1.225000
3.40972
4.62751
5.67587
6.46831
6.67394
6.29906
5.70320
4.96712
4.05527
3.07978
2.18777
1.49179
0.73100
-0.08936
-1.15005
1.250000
3.38346
4.59172
5.63231
6.42432
6.63845
6.26515
5.66589
4.92700
4.01342
3.03623
2.14142
1.44056
0.66970
-0.15851
-1.21526
1.275000
3.34210
4.54196
5.57398
6.36512
6.58740
6.21435
5.61254
4.87110
3.95567
2.97751
2.07968
1.37358
0.59210
-0.24445
-1.29744
1.300000
3.29893
4.48739
5.51240
6.30123
6.53056
6.15799
5.55388
4.81022
3.89325
2.91393
2.01332
1.30186
0.50938
-0.33590
-1.38547
1.325000
3.26444
4.44426
5.45912
6.24577
6.48179
6.10986
5.50295
4.75725
3.83928
2.85919
1.95568
1.23836
0.43476
-0.41943
-1.46602
1.350000
3.24347
4.41531
5.42198
6.20590
6.44667
6.07592
5.46642
4.71851
3.79962
2.81927
1.91326
1.18964
0.37457
-0.48874
-1.53263
1.375000
3.23766
4.39930
5.39980
6.18057
6.42602
6.05560
5.44375
4.69409
3.77416
2.79355
1.88501
1.15496
0.32825
-0.54456
-1.58621
1.400000
3.24133
4.39387
5.38816
6.16387
6.41353
6.04426
5.42951
4.67786
3.75734
2.77654
1.86546
1.12849
0.28967
-0.59262
-1.63257
1.425000
3.24563
4.39388
5.38091
6.15317
6.40631
6.03723
5.41967
4.66630
3.74482
2.76378
1.84976
1.10567
0.25471
-0.63719
-1.67587
1.450000
3.25121
4.39568
5.37688
6.14564
6.40262
6.03203
5.41187
4.65666
3.73401
2.75275
1.83603
1.08426
0.22081
-0.68096
-1.71842
1.475000
3.25661
4.39639
5.37331
6.13867
6.39770
6.02677
5.40400
4.64628
3.72306
2.74120
1.82149
1.06173
0.18540
-0.72595
-1.76282
1.500000
3.26062
4.39901
5.37176
6.13478
6.39578
6.02362
5.39755
4.63741
3.71329
2.73084
1.80784
1.03964
0.15041
-0.77094
-1.80723
1.525000
3.27063
4.40629
5.37598
6.13578
6.39820
6.02509
5.39562
4.63370
3.70824
2.72539
1.79865
1.02164
0.11936
-0.81174
-1.84779
1.550000
3.28301
4.41877
5.38690
6.14367
6.40926
6.03430
5.40118
4.63739
3.71053
2.72670
1.79651
1.01035
0.09493
-0.84569
-1.88157
1.575000
3.29787
4.43297
5.40135
6.15630
6.42536
6.04913
5.41183
4.64570
3.71779
2.73327
1.79876
1.00306
0.07475
-0.87539
-1.91097
1.600000
3.31408
4.44575
5.41317
6.16910
6.44188
6.06467
5.42367
4.65441
3.72528
2.73995
1.80068
0.99501
0.05368
-0.90578
-1.94118
1.625000
3.32535
4.45496
5.42125
6.17955
6.45653
6.07908
5.43396
4.66161
3.73082
2.74435
1.80022
0.98433
0.02987
-0.93874
-1.97407
1.650000
3.33396
4.46511
5.43184
6.19106
6.47502
6.09725
5.44735
4.67187
3.73944
2.75168
1.80208
0.97551
0.00823
-0.96941
-2.00490
1.675000
3.34984
4.48199
5.44959
6.21144
6.50273
6.12508
5.47017
4.69137
3.75736
2.76783
1.81256
0.97507
-0.00483
-0.99153
-2.02713
1.700000
3.37428
4.50789
5.47760
6.24363
6.54233
6.16529
5.50485
4.72285
3.78701
2.79545
1.83443
0.98563
-0.00650
-1.00191
-2.03783
1.725000
3.40489
4.54054
5.51352
6.28474
6.59154
6.21580
5.54981
4.76414
3.82597
2.83267
1.86541
1.00513
0.00110
-1.00290
-2.03918
1.750000
3.43544
4.57175
5.54975
6.32629
6.64262
6.26832
5.59613
4.80672
3.86628
2.87058
1.89746
1.02515
0.00938
-1.00272
-2.03967
1.775000
3.45678
4.59674
5.57798
6.36200
6.68929
6.31669
5.63695
4.84336
3.90074
2.90253
1.92282
1.03896
0.01168
-1.00825
-2.04603
1.800000
3.46497
4.60947
5.59434
6.38650
6.72554
6.35499
5.66747
4.86944
3.92414
2.92352
1.93706
1.04132
0.00270
-1.02462
-2.06343
1.825000
3.45989
4.60778
5.59768
6.39814
6.74942
6.38135
5.68598
4.88289
3.93439
2.93099
1.93764
1.03008
-0.01936
-1.05382
-2.09369
1.850000
3.44504
4.59634
5.59153
6.40015
6.76467
6.39901
5.69505
4.88675
3.93542
2.92876
1.92860
1.00905
-0.05121
-1.09221
-2.13337
1.875000
3.42855
4.58187
5.58253
6.39975
6.77748
6.41455
5.70189
4.88849
3.93337
2.92367
1.91663
0.98499
-0.08559
-1.13270
-2.17517
1.900000
3.41724
4.57186
5.57746
6.40381
6.79495
6.43639
5.71387
4.89494
3.93589
2.92282
1.90906
0.96541
-0.11484
-1.16778
-2.21161
1.925000
3.41335
4.56845
5.57835
6.41404
6.82028
6.46458
5.73308
4.90827
3.94535
2.92893
1.90817
0.95261
-0.13719
-1.19509
-2.24030
1.950000
3.41413
4.56984
5.58312
6.42951
6.85068
6.49899
5.75786
4.92660
3.95939
2.93993
1.91208
0.94483
-0.15409
-1.21639
-2.26299
1.975000
3.41546
4.57264
5.59018
6.44550
6.88207
6.53502
5.78365
4.94631
3.97445
2.95172
1.91712
0.93806
-0.16921
-1.23571
-2.28340
2.000000
3.41927
4.57378
5.59599
6.46137
6.91282
6.57106
5.80931
4.96551
3.98873
2.96252
1.92126
0.93058
-0.18439
-1.25447
-2.30324
2.025000
3.41732
4.57444
5.60055
6.47559
6.94258
6.60649
5.83396
4.98353
4.00221
2.97191
1.92402
0.92226
-0.20009
-1.27302
-2.32269
2.050000
3.41711
4.57501
5.60638
6.49073
6.97299
6.64281
5.85907
5.00283
4.01609
2.98189
1.92752
0.91470
-0.21455
-1.28954
-2.34015
2.075000
3.41761
4.57791
5.61334
6.50842
7.00595
6.68170
5.88644
5.02423
4.03230
2.99368
1.93268
0.90908
-0.22642
-1.30304
-2.35435
2.100000
3.41722
4.58053
5.61965
6.52529
7.03847
6.72070
5.91388
5.04554
4.04821
3.00520
1.93744
0.90321
-0.23795
-1.31571
-2.36763
2.125000
3.41167
4.57994
5.62535
6.53924
7.06841
6.75763
5.93894
5.06466
4.06158
3.01407
1.93941
0.89486
-0.25124
-1.32967
-2.38200
2.150000
3.40321
4.57451
5.62404
6.54775
7.09271
6.78893
5.95879
5.07809
4.06955
3.01718
1.93560
0.88096
-0.26961
-1.34816
-2.40059
2.175000
3.38877
4.56154
5.61776
6.55102
7.11042
6.81448
5.97192
5.08580
4.07154
3.01377
1.92558
0.86095
-0.29345
-1.37158
-2.42394
2.200000
3.37355
4.54582
5.60598
6.54933
7.12278
6.83482
5.97972
5.08843
4.06855
3.00538
1.91042
0.83631
-0.32146
-1.39848
-2.45066
2.225000
3.35446
4.52912
5.59398
6.54489
7.13328
6.85320
5.98585
5.08909
4.06371
2.99556
1.89352
0.81030
-0.34989
-1.42530
-2.47688
2.250000
3.33853
4.51475
5.58499
6.54335
7.14480
6.87312
5.99330
5.09238
4.06139
2.98824
1.87901
0.78717
-0.37457
-1.44801
-2.49846
2.275000
3.33371
4.50760
5.58221
6.54815
7.16221
6.89807
6.00633
5.10113
4.06528
2.98674
1.87084
0.77088
-0.39182
-1.46253
-2.51169
2.300000
3.33449
4.50946
5.58687
6.56050
7.18686
6.93093
6.02672
5.11794
4.07757
2.99375
1.87150
0.76363
-0.39906
-1.46661
-2.51402
2.325000
3.34547
4.52033
5.59963
6.57988
7.21865
6.97161
6.05450
5.14276
4.09865
3.00942
1.88085
0.76560
-0.39630
-1.46001
-2.50514
2.350000
3.36238
4.53582
5.61869
6.60479
7.25574
7.01709
6.08742
5.17364
4.12581
3.03143
1.89666
0.77458
-0.38577
-1.44505
-2.48749
2.375000
3.37914
4.55563
5.63962
6.63219
7.29450
7.06501
6.12376
5.20747
4.15669
3.05752
1.91664
0.78832
-0.36978
-1.42389
-2.46326
2.400000
3.39655
4.57496
5.66115
6.65938
7.33332
7.11291
6.15985
5.24187
4.18900
3.08521
1.93809
0.80423
-0.35078
-1.39943
-2.43518
2.425000
3.40968
4.59152
5.68028
6.68415
7.36870
7.15811
6.19393
5.27460
4.21999
3.11161
1.95921
0.82007
-0.33083
-1.37361
-2.40538
2.450000
3.42138
4.60569
5.69591
6.70530
7.40031
7.19945
6.22397
5.30397
4.24910
3.13653
1.97871
0.83515
-0.31104
-1.34747
-2.37490
2.475000
3.42978
4.61472
5.70841
6.72360
7.42812
7.23643
6.25062
5.33084
4.27598
3.15985
1.99703
0.84971
-0.29126
-1.32068
-2.34340
2.500000
3.43605
4.62503
5.72023
6.73945
7.45382
7.27122
6.27495
5.35563
4.30162
3.18274
2.01544
0.86488
-0.27008
-1.29243
-2.30990
2.525000
3.44199
4.63303
5.73193
6.75509
7.47823
7.30471
6.29735
5.37986
4.32771
3.20668
2.03514
0.88219
-0.24581
-1.26093
-2.27286
2.550000
3.44780
4.64260
5.74415
6.77156
7.50226
7.33678
6.31972
5.40410
4.35487
3.23241
2.05721
0.90235
-0.21814
-1.22566
-2.23184
2.575000
3.45086
4.65202
5.75680
6.78792
7.52460
7.36643
6.34024
5.42706
4.38189
3.25839
2.08024
0.92447
-0.18809
-1.18778
-2.18791
2.600000
3.44993
4.65760
5.76615
6.80044
7.54184
7.39011
6.35522
5.44507
4.40500
3.28169
2.10107
0.94480
-0.15916
-1.15086
-2.14460
2.625000
3.44458
4.65544
5.76923
6.80531
7.55210
7.40485
6.36209
5.45526
4.42178
3.29965
2.11694
0.96111
-0.13380
-1.11720
-2.10443
2.650000
3.43078
4.64589
5.76312
6.80297
7.55266
7.40915
6.35902
5.45664
4.43024
3.30995
2.12638
0.97165
-0.11375
-1.08901
-2.06917
2.675000
3.40858
4.62757
5.74917
6.79080
7.54368
7.40314
6.34594
5.44771
4.43038
3.31334
2.12914
0.97651
-0.09912
-1.06589
-2.03889
2.700000
3.38127
4.60459
5.72794
6.77320
7.52670
7.38715
6.32330
5.43104
4.42361
3.31082
2.12747
0.97719
-0.08815
-1.04657
-2.01197
2.725000
3.35068
4.57393
5.70091
6.74792
7.50197
7.36181
6.29251
5.40604
4.40944
3.30287
2.12110
0.97407
-0.08095
-1.03097
-1.98860
2.750000
3.31292
4.53657
5.66732
6.71439
7.46837
7.32706
6.25235
5.37207
4.38808
3.28870
2.10955
0.96629
-0.07782
-1.01933
-1.96918
2.775000
3.26882
4.49381
5.62522
6.67247
7.42610
7.28137
6.20257
5.32885
4.35875
3.26784
2.09256
0.95382
-0.07937
-1.01221
-1.95395
2.800000
3.22085
4.44365
5.57518
6.62239
7.37362
7.22512
6.14305
5.27581
4.32129
3.24047
2.06978
0.93649
-0.08554
-1.00988
-1.94310
2.825000
3.17218
4.38756
5.51689
6.56524
7.31276
7.15983
6.07402
5.21450
4.27631
3.20727
2.04262
0.91549
-0.09553
-1.01119
-1.93573
2.850000
3.11761
4.32722
5.45480
6.50024
7.24403
7.08631
5.99760
5.14569
4.22545
3.16950
2.01244
0.89200
-0.10774
-1.01464
-1.93034
2.875000
3.06592
4.26438
5.38772
6.43189
7.17017
7.00636
5.91550
5.07133
4.16988
3.12926
1.98081
0.86797
-0.12052
-1.01864
-1.92511
2.900000
3.01364
4.20000
5.31743
6.35898
7.09196
6.92079
5.82856
4.99236
4.11159
3.08749
1.94891
0.84448
-0.13252
-1.02190
-1.91893
2.925000
2.95855
4.13336
5.24557
6.28272
7.00975
6.83056
5.73700
4.90851
4.04964
3.04401
1.91702
0.82160
-0.14392
-1.02461
-1.91185
2.950000
2.90255
4.06555
5.16841
6.20133
6.92209
6.73321
5.63832
4.81832
3.98188
2.99672
1.88265
0.79712
-0.15679
-1.02851
-1.90597
2.975000
2.84529
3.99332
5.08725
6.11410
6.82788
6.62898
5.53432
4.72044
3.90848
2.94552
1.84620
0.77113
-0.17099
-1.03369
-1.90096
3.000000
2.78545
3.91824
5.00224
6.02220
6.72868
6.51754
5.42291
4.61574
3.82923
2.89027
1.80725
0.74400
-0.18656
-1.04022
-1.89701
3.025000
2.72192
3.84022
4.91464
5.92603
6.62420
6.40032
5.30518
4.50479
3.74453
2.83134
1.76623
0.71574
-0.20313
-1.04750
-1.89359
3.050000
2.65921
3.76236
4.82547
5.82790
6.51686
6.27846
5.18239
4.38887
3.65535
2.76990
1.72438
0.68760
-0.21928
-1.05425
-1.88949
3.075000
2.59574
3.68268
4.73371
5.72717
6.40475
6.15148
5.05344
4.26708
3.56158
2.70502
1.68108
0.65875
-0.23568
-1.06142
-1.88525
3.100000
2.52924
3.60114
4.63902
5.62201
6.28874
6.01713
4.91786
4.13807
3.46129
2.63565
1.63459
0.62812
-0.25373
-1.06993
-1.88228
3.125000
2.45865
3.51390
4.53959
5.51032
6.16509
5.87506
4.77273
3.99967
3.35183
2.55926
1.58263
0.59325
-0.27580
-1.08244
-1.88281
3.150000
2.38594
3.42241
4.43332
5.39254
6.03411
5.72405
4.61744
3.85165
3.23310
2.47473
1.52463
0.55342
-0.30265
-1.09919
-1.88763
3.175000
2.31147
3.32562
4.32109
5.26890
5.89657
5.56464
4.45335
3.69479
3.10555
2.38319
1.46148
0.50930
-0.33327
-1.11980
-1.89583
3.200000
2.23558
3.22831
4.20768
5.14175
5.75530
5.40113
4.28367
3.53176
2.97255
2.28774
1.39599
0.46409
-0.36462
-1.14095
-1.90440
3.225000
2.16288
3.13425
4.09726
5.01610
5.61496
5.23729
4.11256
3.36626
2.83828
2.19184
1.33194
0.42161
-0.39300
-1.15868
-1.90950
3.250000
2.09573
3.04571
3.99228
4.89635
5.47920
5.07659
3.94370
3.20329
2.70575
2.09934
1.27284
0.38537
-0.41483
-1.16970
-1.90751
3.275000
2.03592
2.96596
3.89275
4.78175
5.34914
4.92064
3.77809
3.04300
2.57624
2.01097
1.21941
0.35591
-0.42943
-1.17324
-1.89775
3.300000
1.98214
2.88938
3.79996
4.67259
5.22346
4.76845
3.61532
2.88448
2.44889
1.92553
1.17043
0.33184
-0.43805
-1.17054
-1.88170
3.325000
1.93102
2.81733
3.71062
4.56542
5.10011
4.61748
3.45260
2.72550
2.32046
1.84027
1.12289
0.31041
-0.44354
-1.16460
-1.86213
3.350000
1.88011
2.74608
3.62029
4.45818
4.97465
4.46462
3.28629
2.56260
2.18794
1.75152
1.07330
0.28784
-0.44992
-1.15918
-1.84302
3.375000
1.82387
2.67209
3.52615
4.34769
4.84634
4.30854
3.11477
2.39314
2.04864
1.65645
1.01874
0.26121
-0.45999
-1.15715
-1.82708
3.400000
1.76560
2.59327
3.42996
4.23303
4.71407
4.14804
2.93788
2.21711
1.90220
1.55475
0.95850
0.22993
-0.47427
-1.15905
-1.81499
3.425000
1.70386
2.51212
3.33205
4.11702
4.57921
3.98424
2.75783
2.03618
1.75025
1.44792
0.89409
0.19499
-0.49157
-1.16345
-1.80545
3.450000
1.64197
2.43084
3.23289
3.99932
4.44303
3.81991
2.57505
1.85172
1.59351
1.33698
0.82624
0.15746
-0.51090
-1.16983
-1.79767
3.475000
1.58109
2.35222
3.13387
3.88217
4.30791
3.65638
2.39241
1.66497
1.43491
1.22313
0.75673
0.11879
-0.53082
-1.17658
-1.79017
3.500000
1.52162
2.27172
3.03633
3.76598
4.17253
3.49359
2.20914
1.47732
1.27358
1.10666
0.68487
0.07863
-0.55204
-1.18404
-1.78336
3.525000
1.46400
2.19312
2.93939
3.65090
4.03846
3.33164
2.02642
1.28838
1.11016
0.98798
0.61070
0.03665
-0.57447
-1.19239
-1.77754
3.550000
1.40436
2.11459
2.84314
3.53602
3.90407
3.17000
1.84317
1.09785
0.94391
0.86597
0.53342
-0.00806
-0.59920
-1.20256
-1.77352
3.575000
1.34703
2.03719
2.74647
3.42184
3.77078
3.00966
1.66023
0.90632
0.77575
0.74098
0.45332
-0.05519
-0.62602
-1.21450
-1.77143
3.600000
1.29074
1.96231
2.65146
3.30944
3.64020
2.85240
1.47930
0.71580
0.60712
0.61472
0.37177
-0.10395
-0.65411
-1.22734
-1.77026
3.625000
1.23633
1.88950
2.56139
3.19931
3.51204
2.69864
1.30176
0.52724
0.43925
0.48837
0.28923
-0.15350
-0.68264
-1.24046
-1.76935
3.650000
1.18536
1.82055
2.47493
3.09329
3.38867
2.54970
1.12936
0.34322
0.27371
0.36320
0.20759
-0.20267
-0.71026
-1.25222
-1.76761
3.675000
1.13768
1.75593
2.39235
2.99337
3.26929
2.40705
0.96212
0.16411
0.11192
0.23977
0.12700
-0.25102
-0.73691
-1.26283
-1.76475
3.700000
1.09249
1.69538
2.31502
2.89807
3.15602
2.26971
0.80099
-0.01003
-0.04614
0.11891
0.04725
-0.29872
-0.76271
-1.27245
-1.76107
3.725000
1.05096
1.63714
2.24130
2.80658
3.04708
2.13777
0.64445
-0.17926
-0.20132
-0.00106
-0.03237
-0.34691
-0.78910
-1.28214
-1.75785
3.750000
1.00986
1.58035
2.16914
2.71741
2.94045
2.00934
0.49213
-0.34492
-0.35433
-0.12102
-0.11353
-0.39715
-0.81751
-1.29353
-1.75656
3.775000
0.96921
1.52544
2.09932
2.63103
2.83793
1.88523
0.34372
-0.50679
-0.50484
-0.24018
-0.19574
-0.44949
-0.84763
-1.30670
-1.75731
3.800000
0.92952
1.47284
2.03281
2.54757
2.73819
1.76537
0.20011
-0.66368
-0.65191
-0.35814
-0.27851
-0.50332
-0.87962
-1.32127
-1.76001
3.825000
0.89297
1.42404
1.97070
2.46973
2.64387
1.65180
0.06397
-0.81312
-0.79329
-0.47261
-0.35960
-0.55645
-0.91074
-1.33519
-1.76229
3.850000
0.86044
1.38008
1.91516
2.39881
2.55779
1.54621
-0.06343
-0.95299
-0.92641
-0.58079
-0.43700
-0.60664
-0.93935
-1.34645
-1.76238
3.875000
0.83634
1.34492
1.86736
2.33679
2.48125
1.45104
-0.17939
-1.08101
-1.04907
-0.68092
-0.50817
-0.65224
-0.96347
-1.35298
-1.75823
3.900000
0.81783
1.31696
1.82907
2.28487
2.41459
1.36735
-0.28318
-1.19624
-1.16009
-0.77217
-0.57270
-0.69225
-0.98227
-1.35405
-1.74913
3.925000
0.80742
1.29792
1.79887
2.24296
2.35791
1.29411
-0.37466
-1.29842
-1.26013
-0.85413
-0.63027
-0.72692
-0.99554
-1.35001
-1.73530
3.950000
0.79990
1.28562
1.77587
2.20759
2.30963
1.23035
-0.45617
-1.38953
-1.34964
-0.92864
-0.68274
-0.75729
-1.00526
-1.34223
-1.71835
3.975000
0.79899
1.27749
1.76011
2.18021
2.26866
1.17572
-0.52723
-1.46946
-1.42920
-0.99547
-0.72976
-0.78389
-1.01139
-1.33073
-1.69824
4.000000
0.80096
1.27453
1.75000
2.15917
2.23480
1.12874
-0.58896
-1.53904
-1.49969
-1.05559
-0.77247
-0.80737
-1.01455
-1.31655
-1.67584
4.025000
0.80661
1.27648
1.74484
2.14523
2.20851
1.08971
-0.64084
-1.59804
-1.56078
-1.10847
-0.81048
-0.82731
-1.01439
-1.29917
-1.65075
4.050000
0.81524
1.28278
1.74550
2.13572
2.18746
1.05731
-0.68453
-1.64722
-1.61334
-1.15520
-0.84443
-0.84416
-1.01176
-1.27910
-1.62360
4.075000
0.82687
1.29317
1.75106
2.13186
2.17325
1.03297
-0.71898
-1.68593
-1.65679
-1.19505
-0.87372
-0.85745
-1.00551
-1.25573
-1.59363
4.100000
0.84167
1.30786
1.76085
2.13411
2.16445
1.01580
-0.74488
-1.71557
-1.69182
-1.22866
-0.89858
-0.86730
-0.99612
-1.22938
-1.56124
4.125000
0.85794
1.32522
1.77564
2.14147
2.16121
1.00427
-0.76224
-1.73591
-1.71860
-1.25608
-0.91910
-0.87385
-0.98353
-1.19984
-1.52625
4.150000
0.87855
1.34763
1.79440
2.15330
2.16293
0.99845
-0.77242
-1.74759
-1.73795
-1.27821
-0.93575
-0.87735
-0.96810
-1.16768
-1.48905
4.175000
0.90093
1.37221
1.81653
2.16824
2.16865
0.99778
-0.77555
-1.75194
-1.75036
-1.29505
-0.94896
-0.87779
-0.94981
-1.13286
-1.44960
4.200000
0.92604
1.40022
1.84291
2.18820
2.17958
1.00325
-0.77140
-1.74707
-1.75455
-1.30537
-0.95740
-0.87405
-0.92743
-1.09401
-1.40655
4.225000
0.95359
1.43296
1.87363
2.21293
2.19548
1.01447
-0.75990
-1.73397
-1.75117
-1.30957
-0.96085
-0.86567
-0.90047
-1.05084
-1.35962
4.250000
0.98594
1.46800
1.90669
2.24189
2.21647
1.03097
-0.74091
-1.71218
-1.74043
-1.30787
-0.95921
-0.85276
-0.86882
-1.00318
-1.30842
4.275000
1.02094
1.50684
1.94559
2.27583
2.24170
1.05306
-0.71477
-1.68282
-1.72217
-1.29962
-0.95251
-0.83470
-0.83227
-0.95063
-1.25286
4.300000
1.05726
1.54766
1.98724
2.31221
2.27072
1.07947
-0.68260
-1.64656
-1.69757
-1.28637
-0.94144
-0.81249
-0.79154
-0.89423
-1.19361
4.325000
1.09285
1.58896
2.03059
2.34985
2.30149
1.10824
-0.64687
-1.60552
-1.66830
-1.26978
-0.92747
-0.78752
-0.74786
-0.83504
-1.13187
4.350000
1.13008
1.63137
2.07271
2.38883
2.33302
1.13878
-0.60840
-1.56108
-1.63600
-1.25051
-0.91153
-0.76052
-0.70217
-0.77396
-1.06865
4.375000
1.16502
1.67191
2.11378
2.42666
2.36266
1.16884
-0.56859
-1.51429
-1.60177
-1.23013
-0.89480
-0.73258
-0.65567
-0.71229
-1.00501
4.400000
1.19683
1.70958
2.15270
2.46239
2.39076
1.19745
-0.52867
-1.46675
-1.56654
-1.20941
-0.87778
-0.70438
-0.60889
-0.65062
-0.94165
4.425000
1.22590
1.74525
2.18873
2.49584
2.41745
1.22424
-0.48903
-1.41868
-1.53083
-1.18866
-0.86093
-0.67593
-0.56176
-0.58895
-0.87858
4.450000
1.25405
1.77879
2.22301
2.52730
2.44189
1.24939
-0.44979
-1.37062
-1.49482
-1.16748
-0.84361
-0.64703
-0.51422
-0.52713
-0.81558
4.475000
1.27858
1.80937
2.25617
2.55740
2.46501
1.27374
-0.41052
-1.32121
-1.45718
-1.14530
-0.82509
-0.61642
-0.46516
-0.46405
-0.75167
4.500000
1.30111
1.84079
2.28859
2.58604
2.48687
1.29778
-0.37048
-1.27062
-1.41850
-1.12162
-0.80443
-0.58356
-0.41421
-0.39949
-0.68641
4.525000
1.32549
1.86929
2.31962
2.61462
2.50840
1.32053
-0.32991
-1.21895
-1.37781
-1.09601
-0.78197
-0.54816
-0.36083
-0.33308
-0.61946
4.550000
1.35135
1.89780
2.34830
2.64141
2.52910
1.34384
-0.28806
-1.16572
-1.33520
-1.06766
-0.75643
-0.50984
-0.30444
-0.26419
-0.55026
4.575000
1.37586
1.92607
2.37885
2.66857
2.55001
1.36780
-0.24512
-1.11024
-1.28940
-1.03594
-0.72696
-0.46730
-0.24449
-0.19219
-0.47828
4.600000
1.40023
1.95449
2.40839
2.69596
2.57155
1.39240
-0.20083
-1.05296
-1.24120
-1.00139
-0.69388
-0.42109
-0.18107
-0.11739
-0.40359
4.625000
1.42283
1.98293
2.43812
2.72344
2.59265
1.41725
-0.15550
-0.99407
-1.19059
-0.96373
-0.65722
-0.37082
-0.11436
-0.03956
-0.32620
4.650000
1.44546
2.01191
2.46857
2.75166
2.61389
1.44217
-0.10880
-0.93408
-1.13757
-0.92323
-0.61697
-0.31692
-0.04420
0.04071
-0.24644
4.675000
1.46998
2.04149
2.49794
2.77889
2.63437
1.46781
-0.06237
-0.87303
-1.08323
-0.87992
-0.57367
-0.25975
0.02861
0.12284
-0.16517
4.700000
1.49202
2.06848
2.52655
2.80436
2.65457
1.49213
-0.01704
-0.81209
-1.02876
-0.83557
-0.52853
-0.20048
0.10293
0.20577
-0.08335
4.725000
1.50949
2.09354
2.55302
2.82762
2.67253
1.51514
0.02671
-0.75294
-0.97369
-0.79048
-0.48155
-0.14003
0.17786
0.28857
-0.00175
4.750000
1.52822
2.11645
2.57631
2.84921
2.68749
1.53681
0.06681
-0.69449
-0.91943
-0.74502
-0.43391
-0.07853
0.25295
0.37063
0.07889
4.775000
1.54387
2.13632
2.59807
2.86767
2.70113
1.55682
0.10499
-0.63724
-0.86551
-0.69886
-0.38499
-0.01597
0.32818
0.45200
0.15861
4.800000
1.55411
2.15495
2.61716
2.88515
2.71272
1.57657
0.14166
-0.58159
-0.81197
-0.65174
-0.33443
0.04787
0.40382
0.53286
0.23742
4.825000
1.56859
2.17170
2.63515
2.90040
2.72408
1.59586
0.17744
-0.52652
-0.75727
-0.60271
-0.28193
0.11376
0.48035
0.61354
0.31602
4.850000
1.58154
2.18765
2.65189
2.91433
2.73445
1.61514
0.21312
-0.47154
-0.70239
-0.55164
-0.22679
0.18154
0.55805
0.69420
0.39433
4.875000
1.59427
2.20286
2.66699
2.92824
2.74465
1.63434
0.24887
-0.41688
-0.64601
-0.49877
-0.16884
0.25144
0.63670
0.77486
0.47231
4.900000
1.60217
2.21547
2.68142
2.94133
2.75368
1.65478
0.28471
-0.36227
-0.58893
-0.44380
-0.10836
0.32344
0.71610
0.85501
0.54934
4.925000
1.61233
2.22695
2.69287
2.95275
2.76179
1.67366
0.32005
-0.30899
-0.53180
-0.38768
-0.04663
0.39636
0.79513
0.93354
0.62458
4.950000
1.62135
2.23612
2.70280
2.96222
2.76965
1.69234
0.35482
-0.25604
-0.47408
-0.33019
0.01684
0.46996
0.87391
1.01038
0.69785
4.975000
1.62377
2.24338
2.71026
2.96784
2.77536
1.70912
0.38885
-0.20514
-0.41739
-0.27258
0.08066
0.54316
0.95067
1.08406
0.76757
5.000000
1.62541
2.24806
2.71514
2.97262
2.77922
1.72526
0.42136
-0.15625
-0.36169
-0.21480
0.14478
0.61592
1.02556
1.15442
0.83354
0.025000
3.79083
4.00867
4.19149
4.40285
4.60096
4.65818
4.69354
4.69240
4.62260
4.43815
4.07094
3.42409
3.10057
2.50538
1.45439
0.050000
3.72786
4.07677
4.28649
4.49720
4.68465
4.72999
4.75035
4.73336
4.64797
4.44615
4.07079
3.42581
3.08816
2.48489
1.41832
0.075000
3.61648
4.11018
4.36428
4.58078
4.75895
4.79141
4.79594
4.76309
4.65951
4.43964
4.05582
3.41316
3.06155
2.45004
1.36853
0.100000
3.44467
4.06948
4.37711
4.60324
4.77188
4.79128
4.77897
4.72835
4.60518
4.36553
3.97240
3.33228
2.96638
2.34634
1.25029
0.125000
3.29982
4.03341
4.39503
4.63109
4.79037
4.79643
4.76694
4.69776
4.55338
4.29325
3.89039
3.25280
2.87261
2.24430
1.13441
0.150000
3.20459
4.02769
4.44022
4.68752
4.83692
4.82904
4.78212
4.69373
4.52693
4.24601
3.83285
3.19775
2.80365
2.16734
1.04466
0.175000
3.17477
4.06713
4.52469
4.78360
4.92266
4.90121
4.83639
4.72871
4.53864
4.23600
3.81201
3.17962
2.77188
2.12811
0.99341
0.200000
3.20667
4.15774
4.65644
4.92471
5.05340
5.01877
4.93636
4.80865
4.59428
4.27040
3.83465
3.20479
2.78402
2.13314
0.98752
0.225000
3.23323
4.23037
4.76608
5.04270
5.16261
5.11279
5.01247
4.86418
4.62505
4.27901
3.83083
3.20355
2.77003
2.11235
0.95699
0.250000
3.19686
4.22925
4.79932
5.08480
5.19505
5.12984
5.01132
4.84133
4.57700
4.20784
3.74605
3.12079
2.67462
2.01028
0.84601
0.275000
3.15709
4.21694
4.81771
5.11233
5.21171
5.13216
4.99496
4.80282
4.51245
4.11927
3.64379
3.02003
2.56146
1.89077
0.71844
0.300000
3.18032
4.26380
4.89316
5.19825
5.28699
5.19243
5.03677
4.82237
4.50540
4.08812
3.59855
2.97649
2.50565
1.82920
0.65013
0.325000
3.30246
4.40384
5.06031
5.37515
5.45489
5.34688
5.17194
4.93564
4.59208
4.15147
3.64690
3.02679
2.54441
1.86282
0.67854
0.350000
3.41686
4.53453
5.21744
5.54395
5.61538
5.49354
5.29949
5.04137
4.67151
4.20666
3.68749
3.06857
2.57515
1.88912
0.70093
0.375000
3.47959
4.61058
5.31969
5.66103
5.72427
5.58793
5.37535
5.09465
4.69868
4.20942
3.67494
3.05694
2.55281
1.86265
0.67179
0.400000
3.53993
4.69124
5.42709
5.78304
5.83977
5.68959
5.45880
5.15570
4.73309
4.21997
3.66990
3.05259
2.53839
1.84466
0.65229
0.425000
3.63626
4.80671
5.56973
5.94198
5.99362
5.82980
5.58050
5.25534
4.80680
4.26998
3.70448
3.08781
2.56397
1.86732
0.67468
0.450000
3.72927
4.92136
5.71479
6.10346
6.15136
5.97417
5.70728
5.36018
4.88609
4.32551
3.74454
3.12795
2.59495
1.89553
0.70350
0.475000
3.79192
5.00877
5.83199
6.24048
6.28551
6.09513
5.81033
5.44164
4.94216
4.35793
3.76135
3.14446
2.60245
1.90042
0.70894
0.500000
3.80575
5.04656
5.89951
6.32904
6.37229
6.16821
5.86590
5.47568
4.95080
4.34303
3.73032
3.11233
2.56184
1.85688
0.66603
0.525000
3.78471
5.04882
5.92956
6.38004
6.42095
6.20492
5.88507
5.47328
4.92362
4.29221
3.66367
3.04424
2.48536
1.77759
0.58734
0.550000
3.76175
5.05017
5.95687
6.42658
6.46748
6.23885
5.90161
5.46936
4.89544
4.24081
3.59655
2.97566
2.40896
1.69830
0.50919
0.575000
3.76608
5.07754
6.00862
6.49682
6.53762
6.29678
5.94329
5.49057
4.89289
4.21618
3.55626
2.93425
2.35998
1.64654
0.45924
0.600000
3.79716
5.12484
6.07890
6.58647
6.62713
6.37423
6.00487
5.53284
4.91202
4.21404
3.53882
2.91541
2.33398
1.61812
0.43288
0.625000
3.81979
5.16176
6.13866
6.66480
6.70635
6.44254
6.05735
5.56644
4.92307
4.20459
3.51454
2.88903
2.30088
1.58256
0.39955
0.650000
3.81242
5.16807
6.16610
6.71185
6.75394
6.47986
6.07960
5.56969
4.90494
4.16586
3.46142
2.83380
2.23900
1.51793
0.33782
0.675000
3.77886
5.14333
6.16027
6.72505
6.76947
6.48505
6.06980
5.54172
4.85664
4.09719
3.37874
2.74878
2.14704
1.42352
0.24670
0.700000